chemcompute.org
{'UTCtimestamp': '2022-10-03T21:02:48.208204', 'cluster': 'jetstream2', 'clusterJobNumber': '120467', 'status': 'RUNNING', 'nodeList': 'chemcompute-node-2'}
----- GAMESS execution script 'rungms' -----
This job is running on host chemcompute-node-2.novalocal
under operating system Linux at Mon Oct 3 21:02:52 UTC 2022
SLURM has assigned the following compute nodes to this run:
Available scratch disk space (Kbyte units) at beginning of the job is
Filesystem     1K-blocks     Used Available Use% Mounted on
/dev/sda1       62903276 11895364  51007912  19% /
GAMESS temporary binary files will be written to /scratch/120467
GAMESS supplementary output files will be written to /data/slurm/46/460031
Copying input file 460031.inp to your run's scratch directory...
The generated host list is
chemcompute-node-2.novalocal

 Distributed Data Interface kickoff program.
 Initiating 1 compute processes on 1 nodes to run the following command:
 /data/gamess-2019R1-avx2-ddi/gamess.00.x 460031 

          ******************************************************
          *         GAMESS VERSION = 30 JUN 2019 (R1)          *
          *             FROM IOWA STATE UNIVERSITY             *
          * M.W.SCHMIDT, K.K.BALDRIDGE, J.A.BOATZ, S.T.ELBERT, *
          *   M.S.GORDON, J.H.JENSEN, S.KOSEKI, N.MATSUNAGA,   *
          *          K.A.NGUYEN, S.J.SU, T.L.WINDUS,           *
          *       TOGETHER WITH M.DUPUIS, J.A.MONTGOMERY       *
          *         J.COMPUT.CHEM.  14, 1347-1363(1993)        *
          **************** 64 BIT INTEL VERSION ****************

  SINCE 1993, STUDENTS AND POSTDOCS WORKING AT IOWA STATE UNIVERSITY
  AND ALSO IN THEIR VARIOUS JOBS AFTER LEAVING ISU HAVE MADE IMPORTANT
  CONTRIBUTIONS TO THE CODE:
     IVANA ADAMOVIC, CHRISTINE AIKENS, YURI ALEXEEV, POOJA ARORA,
     ANDREY ASADCHEV, ROB BELL, PRADIPTA BANDYOPADHYAY, JONATHAN BENTZ,
     COLLEEN BERTONI, BRETT BODE, KURT BRORSEN, CALEB CARLIN, GALINA CHABAN,
     WEI CHEN, CHEOL HO CHOI, PAUL DAY, ALBERT DEFUSCO, NUWAN DESILVA,
     TIM DUDLEY, DMITRI FEDOROV, ALEX FINDLATER, GRAHAM FLETCHER, 
     MARK FREITAG, KURT GLAESEMANN, ANASTASIA GUNINA,
     DAN KEMP, GRANT MERRILL, NORIYUKI MINEZAWA, JONATHAN MULLIN,
     TAKESHI NAGATA, SEAN NEDD, HEATHER NETZLOFF, BOSILJKA NJEGIC, RYAN OLSON,
     MIKE PAK, BUU PHAM,
     SPENCER PRUITT, LUKE ROSKOP, JIM SHOEMAKER, LYUDMILA SLIPCHENKO,
     TONY SMITH, SAROM SOK LEANG, JIE SONG, TETSUYA TAKETSUGU, SIMON WEBB,
     PENG XU, SOOHAENG YOO, FEDERICO ZAHARIEV

  ADDITIONAL CODE HAS BEEN PROVIDED BY COLLABORATORS IN OTHER GROUPS:
     IOWA STATE UNIVERSITY:
          JOE IVANIC, AARON WEST, LAIMUTIS BYTAUTAS, KLAUS RUEDENBERG
     UNIVERSITY OF TOKYO: KIMIHIKO HIRAO, TAKAHITO NAKAJIMA,
          TAKAO TSUNEDA, MUNEAKI KAMIYA, SUSUMU YANAGISAWA,
          KIYOSHI YAGI, MAHITO CHIBA, SEIKEN TOKURA, NAOAKI KAWAKAMI
     UNIVERSITY OF AARHUS: FRANK JENSEN
     UNIVERSITY OF IOWA: VISVALDAS KAIRYS, HUI LI
     NATIONAL INST. OF STANDARDS AND TECHNOLOGY: WALT STEVENS, DAVID GARMER
     UNIVERSITY OF PISA: BENEDETTA MENNUCCI, JACOPO TOMASI
     UNIVERSITY OF MEMPHIS: HENRY KURTZ, PRAKASHAN KORAMBATH
     UNIVERSITY OF ALBERTA: TOBY ZENG, MARIUSZ KLOBUKOWSKI
     UNIVERSITY OF NEW ENGLAND: MARK SPACKMAN
     MIE UNIVERSITY: HIROAKI UMEDA
     NAT. INST. OF ADVANCED INDUSTRIAL SCIENCE AND TECHNOLOGY: KAZUO KITAURA
     MICHIGAN STATE UNIVERSITY:
          KAROL KOWALSKI, MARTA WLOCH, JEFFREY GOUR, JESSE LUTZ,
          WEI LI, JUN SHEN, J. EMILIANO DEUSTUA, PIOTR PIECUCH
     UNIVERSITY OF MINNESOTA:
          YINAN SHU
     UNIVERSITY OF SILESIA: MONIKA MUSIAL, STANISLAW KUCHARSKI
     FACULTES UNIVERSITAIRES NOTRE-DAME DE LA PAIX:
          OLIVIER QUINET, BENOIT CHAMPAGNE
     UNIVERSITY OF CALIFORNIA - SANTA BARBARA: BERNARD KIRTMAN
     INSTITUTE FOR MOLECULAR SCIENCE:
          KAZUYA ISHIMURA, MICHIO KATOUDA, AND SHIGERU NAGASE
     UNIVERSITY OF NOTRE DAME: ANNA POMOGAEVA, DAN CHIPMAN
     KYUSHU UNIVERSITY:
          HARUYUKI NAKANO,
          FENG LONG GU, JACEK KORCHOWIEC, MARCIN MAKOWSKI, AND YURIKO AOKI,
          HIROTOSHI MORI AND EISAKU MIYOSHI
     PENNSYLVANIA STATE UNIVERSITY:
          TZVETELIN IORDANOV, CHET SWALINA, JONATHAN SKONE,
          SHARON HAMMES-SCHIFFER
     WASEDA UNIVERSITY:
          MASATO KOBAYASHI, TOMOKO AKAMA, TSUGUKI TOUMA,
          TAKESHI YOSHIKAWA, YASUHIRO IKABATA, JUNJI SEINO,
          YUYA NAKAJIMA, HIROMI NAKAI
     NANJING UNIVERSITY: SHUHUA LI
     UNIVERSITY OF NEBRASKA:
          PEIFENG SU, DEJUN SI, NANDUN THELLAMUREGE, YALI WANG, HUI LI
     UNIVERSITY OF ZURICH: ROBERTO PEVERATI, KIM BALDRIDGE
     N. COPERNICUS UNIVERSITY AND JACKSON STATE UNIVERSITY:
          MARIA BARYSZ
     UNIVERSITY OF COPENHAGEN: Jimmy Kromann, CASPER STEINMANN
     TOKYO INSTITUTE OF TECHNOLOGY: HIROYA NAKATA
     NAGOYA UNIVERSITY: YOSHIO NISHIMOTO, STEPHAN IRLE
     MOSCOW STATE UNIVERSITY: VLADIMIR MIRONOV
     A.N.NESMEYANOV INSTITUTE OF ORGANOELEMENT COMPOUNDS OF RUSSIAN ACADEMY OF SCIENCES:
          IGOR S. GERASIMOV

 EXECUTION OF GAMESS BEGUN Mon Oct  3 21:02:52 2022

            ECHO OF THE FIRST FEW INPUT CARDS -
 INPUT CARD>!                                                                               
 INPUT CARD>!   GAMESS Calculation input file                                               
 INPUT CARD>!                                                                               
 INPUT CARD>!                                                                               
 INPUT CARD> $CONTRL SCFTYP=RHF MAXIT=200 RUNTYP=OPTIMIZE                                   
 INPUT CARD>         COORD=UNIQUE MULT=1                                                    
 INPUT CARD>         ICHARG=0                                                               
 INPUT CARD>         DFTTYP=B3LYP                                                           
 INPUT CARD>         MOLPLT=.FALSE. PLTORB=.FALSE.  $END                                    
 INPUT CARD> $SYSTEM TIMLIM=2879 MWORDS=250  $END                                           
 INPUT CARD>                                                                                
 INPUT CARD> $FORCE METHOD=SEMINUM NVIB=2 $END                                              
 INPUT CARD> $STATPT OPTTOL=0.0005 NSTEP=999 $END                                           
 INPUT CARD> $STATPT IHREP=0 HSSEND=.TRUE.  $END                                            
 INPUT CARD>                                                                                
 INPUT CARD> $DFT    METHOD=GRID  NLEB=590  $END                                            
 INPUT CARD>                                                                                
 INPUT CARD> $BASIS  GBASIS=N31 NGAUSS=6                                                    
 INPUT CARD>         NDFUNC=1   NPFUNC=0  $END                                              
 INPUT CARD>                                                                                
 INPUT CARD> $SCF    DIRSCF=.T. $END                                                        
 INPUT CARD> $GUESS  GUESS=HUCKEL  $END                                                     
 INPUT CARD>                                                                                
 INPUT CARD> $DATA                                                                          
 INPUT CARD>                                                                                
 INPUT CARD>  C1                                                                            
 INPUT CARD>C     6.0    -1.18306     1.40257     0.19725                                   
 INPUT CARD>C     6.0    -0.02452     0.76620    -0.01215                                   
 INPUT CARD>C     6.0     0.03163    -0.71208    -0.02185                                   
 INPUT CARD>O     8.0     1.09339    -1.30805    -0.15388                                   
 INPUT CARD>H     1.0    -2.11944     0.87580     0.36776                                   
 INPUT CARD>H     1.0    -1.21841     2.48847     0.20758                                   
 INPUT CARD>H     1.0     0.91284     1.29162    -0.17623                                   
 INPUT CARD>H     1.0    -0.92602    -1.24066     0.09919                                   
 INPUT CARD> $END                                                                           
 INPUT CARD>                                                                                
 INPUT CARD>                                                                                
 INPUT CARD>! Customizations after this line are persisted when using Do More Calculations  
  250000000 WORDS OF MEMORY AVAILABLE

     BASIS OPTIONS
     -------------
     GBASIS=N31          IGAUSS=       6      POLAR=POPN31  
     NDFUNC=       1     NFFUNC=       0     DIFFSP=       F
     NPFUNC=       0      DIFFS=       F     BASNAM=        


     RUN TITLE
     ---------
                                                                                 

 THE POINT GROUP OF THE MOLECULE IS C1      
 THE ORDER OF THE PRINCIPAL AXIS IS     0

 ATOM      ATOMIC                      COORDINATES (BOHR)
           CHARGE         X                   Y                   Z
 C           6.0    -2.2356592270        2.6504729786        0.3727484511
 C           6.0    -0.0463360812        1.4479080518       -0.0229601708
 C           6.0     0.0597720330       -1.3456360813       -0.0412905128
 O           8.0     2.0662074977       -2.4718560782       -0.2907910350
 H           1.0    -4.0051608474        1.6550220200        0.6949656292
 H           1.0    -2.3024610407        4.7025264287        0.3922693205
 H           1.0     1.7250174706        2.4408078803       -0.3330264108
 H           1.0    -1.7499240592       -2.3445074439        0.1874419207

          INTERNUCLEAR DISTANCES (ANGS.)
          ------------------------------

                1 C          2 C          3 C          4 O          5 H     

   1 C       0.0000000    1.3382937 *  2.4485141 *  3.5571024    1.0878271 *
   2 C       1.3382937 *  0.0000000    1.4793778 *  2.3605769 *  2.1319084 *
   3 C       2.4485141 *  1.4793778 *  0.0000000    1.2247230 *  2.7018995 *
   4 O       3.5571024    2.3605769 *  1.2247230 *  0.0000000    3.9196410  
   5 H       1.0878271 *  2.1319084 *  2.7018995 *  3.9196410    0.0000000  
   6 H       1.0865243 *  2.1070996 *  3.4436548    4.4596678    1.8542430 *
   7 H       2.1318053 *  1.0870291 *  2.1943514 *  2.6060280 *  3.1086256  
   8 H       2.6575083 *  2.2028586 *  1.1005185 *  2.0363208 *  2.4445417 *

                6 H          7 H          8 H     

   1 C       1.0865243 *  2.1318053 *  2.6575083 *
   2 C       2.1070996 *  1.0870291 *  2.2028586 *
   3 C       3.4436548    2.1943514 *  1.1005185 *
   4 O       4.4596678    2.6060280 *  2.0363208 *
   5 H       1.8542430 *  3.1086256    2.4445417 *
   6 H       0.0000000    2.4742649 *  3.7421452  
   7 H       2.4742649 *  0.0000000    3.1416085  
   8 H       3.7421452    3.1416085    0.0000000  

  * ... LESS THAN  3.000


     ATOMIC BASIS SET
     ----------------
 THE CONTRACTED PRIMITIVE FUNCTIONS HAVE BEEN UNNORMALIZED
 THE CONTRACTED BASIS FUNCTIONS ARE NOW NORMALIZED TO UNITY

  SHELL TYPE  PRIMITIVE        EXPONENT          CONTRACTION COEFFICIENT(S)

 C         

      1   S       1          3047.5248800    0.001834737132
      1   S       2           457.3695180    0.014037322813
      1   S       3           103.9486850    0.068842622264
      1   S       4            29.2101553    0.232184443216
      1   S       5             9.2866630    0.467941348435
      1   S       6             3.1639270    0.362311985337

      2   L       7             7.8682723   -0.119332419775    0.068999066591
      2   L       8             1.8812885   -0.160854151696    0.316423960957
      2   L       9             0.5442493    1.143456437840    0.744308290898

      3   L      10             0.1687145    1.000000000000    1.000000000000

      4   D      11             0.8000000    1.000000000000

 C         

      5   S      12          3047.5248800    0.001834737132
      5   S      13           457.3695180    0.014037322813
      5   S      14           103.9486850    0.068842622264
      5   S      15            29.2101553    0.232184443216
      5   S      16             9.2866630    0.467941348435
      5   S      17             3.1639270    0.362311985337

      6   L      18             7.8682723   -0.119332419775    0.068999066591
      6   L      19             1.8812885   -0.160854151696    0.316423960957
      6   L      20             0.5442493    1.143456437840    0.744308290898

      7   L      21             0.1687145    1.000000000000    1.000000000000

      8   D      22             0.8000000    1.000000000000

 C         

      9   S      23          3047.5248800    0.001834737132
      9   S      24           457.3695180    0.014037322813
      9   S      25           103.9486850    0.068842622264
      9   S      26            29.2101553    0.232184443216
      9   S      27             9.2866630    0.467941348435
      9   S      28             3.1639270    0.362311985337

     10   L      29             7.8682723   -0.119332419775    0.068999066591
     10   L      30             1.8812885   -0.160854151696    0.316423960957
     10   L      31             0.5442493    1.143456437840    0.744308290898

     11   L      32             0.1687145    1.000000000000    1.000000000000

     12   D      33             0.8000000    1.000000000000

 O         

     13   S      34          5484.6716600    0.001831074430
     13   S      35           825.2349460    0.013950172200
     13   S      36           188.0469580    0.068445078098
     13   S      37            52.9645000    0.232714335992
     13   S      38            16.8975704    0.470192897984
     13   S      39             5.7996353    0.358520852987

     14   L      40            15.5396162   -0.110777549525    0.070874268231
     14   L      41             3.5999336   -0.148026262701    0.339752839147
     14   L      42             1.0137618    1.130767015354    0.727158577316

     15   L      43             0.2700058    1.000000000000    1.000000000000

     16   D      44             0.8000000    1.000000000000

 H         

     17   S      45            18.7311370    0.033494604338
     17   S      46             2.8253944    0.234726953484
     17   S      47             0.6401217    0.813757326146

     18   S      48             0.1612778    1.000000000000

 H         

     19   S      49            18.7311370    0.033494604338
     19   S      50             2.8253944    0.234726953484
     19   S      51             0.6401217    0.813757326146

     20   S      52             0.1612778    1.000000000000

 H         

     21   S      53            18.7311370    0.033494604338
     21   S      54             2.8253944    0.234726953484
     21   S      55             0.6401217    0.813757326146

     22   S      56             0.1612778    1.000000000000

 H         

     23   S      57            18.7311370    0.033494604338
     23   S      58             2.8253944    0.234726953484
     23   S      59             0.6401217    0.813757326146

     24   S      60             0.1612778    1.000000000000

 TOTAL NUMBER OF BASIS SET SHELLS             =   24
 NUMBER OF CARTESIAN GAUSSIAN BASIS FUNCTIONS =   68
 NUMBER OF ELECTRONS                          =   30
 CHARGE OF MOLECULE                           =    0
 SPIN MULTIPLICITY                            =    1
 NUMBER OF OCCUPIED ORBITALS (ALPHA)          =   15
 NUMBER OF OCCUPIED ORBITALS (BETA )          =   15
 TOTAL NUMBER OF ATOMS                        =    8
 THE NUCLEAR REPULSION ENERGY IS      102.7744777674

 SELECTED MURRAY-HANDY-LAMING RADIAL GRID

 LEGACY BECKE'S FUZZY CELL METHOD

 SELECTED ORIGINAL BECKE'S PARTITION FUNCTION

     LEBEDEV GRID-BASED DFT OPTIONS
     ------------------------------
     DFTTYP=B3LYP   
     NRAD  =      96     NLEB  =     590
     NRAD0 =      24     NLEB0 =     110
     SWOFF =    5.00E-03 (PURE SCF -> DFT)
     SWITCH=    3.00E-04 (COARSE -> TIGHT GRID)
     THRESH=    0.00E+00 GTHRE=    1.00E+00

 GRIMME'S EMPIRICAL DISPERSION CORRECTION= F

     $CONTRL OPTIONS
     ---------------
 SCFTYP=RHF          RUNTYP=OPTIMIZE     EXETYP=RUN     
 MPLEVL=       0     CITYP =NONE         CCTYP =NONE         VBTYP =NONE    
 DFTTYP=B3LYP        TDDFT =NONE    
 MULT  =       1     ICHARG=       0     NZVAR =       0     COORD =UNIQUE  
 PP    =NONE         RELWFN=NONE         LOCAL =NONE         NUMGRD=       F
 ISPHER=      -1     NOSYM =       0     MAXIT =     200     UNITS =ANGS    
 PLTORB=       F     MOLPLT=       F     AIMPAC=       F     FRIEND=        
 NPRINT=       7     IREST =       0     GEOM  =INPUT   
 NORMF =       0     NORMP =       0     ITOL  =      20     ICUT  =       9
 INTTYP=BEST         GRDTYP=BEST         QMTTOL= 1.0E-06

     $SYSTEM OPTIONS
     ---------------
  REPLICATED MEMORY=   250000000 WORDS (ON EVERY NODE).
 DISTRIBUTED MEMDDI=           0 MILLION WORDS IN AGGREGATE,
 MEMDDI DISTRIBUTED OVER   1 PROCESSORS IS           0 WORDS/PROCESSOR.
 TOTAL MEMORY REQUESTED ON EACH PROCESSOR=   250000000 WORDS.
 TIMLIM=        2879.00 MINUTES, OR       2.0 DAYS.
 PARALL= F  BALTYP=  DLB     KDIAG=    0  COREFL= F
 MXSEQ2=     300 MXSEQ3=     150  mem10=         0

          ----------------
          PROPERTIES INPUT
          ----------------

     MOMENTS            FIELD           POTENTIAL          DENSITY
 IEMOM =       1   IEFLD =       0   IEPOT =       0   IEDEN =       0
 WHERE =COMASS     WHERE =NUCLEI     WHERE =NUCLEI     WHERE =NUCLEI  
 OUTPUT=BOTH       OUTPUT=BOTH       OUTPUT=BOTH       OUTPUT=BOTH    
 IEMINT=       0   IEFINT=       0                     IEDINT=       0
                                                       MORB  =       0
          EXTRAPOLATION IN EFFECT
          DIIS IN EFFECT
 ORBITAL PRINTING OPTION: NPREO=     1    68     2     1

     -------------------------------
     INTEGRAL TRANSFORMATION OPTIONS
     -------------------------------
     NWORD  =            0
     CUTOFF = 1.0E-09     MPTRAN =       0
     DIRTRF =       T     AOINTS =DUP     

          ----------------------
          INTEGRAL INPUT OPTIONS
          ----------------------
 NOPK  =       1 NORDER=       0 SCHWRZ=       T

     ------------------------------------------
     THE POINT GROUP IS C1 , NAXIS= 0, ORDER= 1
     ------------------------------------------

     DIMENSIONS OF THE SYMMETRY SUBSPACES ARE
 A   =   68

 ..... DONE SETTING UP THE RUN .....
 STEP CPU TIME =     0.02 TOTAL CPU TIME =          0.0 (      0.0 MIN)
 TOTAL WALL CLOCK TIME=          0.0 SECONDS, CPU UTILIZATION IS    66.67%


          -----------------------------
          STATIONARY POINT LOCATION RUN
          -----------------------------

 OBTAINING INITIAL HESSIAN, HESS=GUESS   
 CARTESIAN COORDINATE OPTIMIZATION USING BADGER'S RULE FORCE CONSTANT GUESS

          PARAMETERS CONTROLLING GEOMETRY SEARCH ARE
          METHOD =QA                  UPHESS =BFGS    
          NNEG   =         0          NFRZ   =         0
          NSTEP  =       999          IFOLOW =         1
          HESS   =GUESS               RESTAR =         F
          IHREP  =         0          HSSEND =         T
          NPRT   =         0          NPUN   =         0
          OPTTOL = 5.000E-04          RMIN   = 1.500E-03
          RMAX   = 1.000E-01          RLIM   = 7.000E-02
          DXMAX  = 3.000E-01          PURIFY =         F
          MOVIE  =         F          TRUPD  =         T
          TRMAX  = 5.000E-01          TRMIN  = 5.000E-02
          ITBMAT =         5          STPT   =         F
          STSTEP = 1.000E-02          PROJCT=          T

 BEGINNING GEOMETRY SEARCH POINT NSERCH=   0 ...

 COORDINATES OF ALL ATOMS ARE (ANGS)
   ATOM   CHARGE       X              Y              Z
 ------------------------------------------------------------
 C           6.0  -1.1830600000   1.4025700000   0.1972500000
 C           6.0  -0.0245200000   0.7662000000  -0.0121500000
 C           6.0   0.0316300000  -0.7120800000  -0.0218500000
 O           8.0   1.0933900000  -1.3080500000  -0.1538800000
 H           1.0  -2.1194400000   0.8758000000   0.3677600000
 H           1.0  -1.2184100000   2.4884700000   0.2075800000
 H           1.0   0.9128400000   1.2916200000  -0.1762300000
 H           1.0  -0.9260200000  -1.2406600000   0.0991900000

          ********************
          1 ELECTRON INTEGRALS
          ********************
 ...... END OF ONE-ELECTRON INTEGRALS ......
 STEP CPU TIME =     0.00 TOTAL CPU TIME =          0.0 (      0.0 MIN)
 TOTAL WALL CLOCK TIME=          0.0 SECONDS, CPU UTILIZATION IS    50.00%

          -------------
          GUESS OPTIONS
          -------------
          GUESS =HUCKEL            NORB  =       0          NORDER=       0
          MIX   =       F          PRTMO =       F          PUNMO =       F
          TOLZ  = 1.0E-08          TOLE  = 1.0E-05
          SYMDEN=       F          PURIFY=       F

 INITIAL GUESS ORBITALS GENERATED BY HUCKEL   ROUTINE.
 HUCKEL GUESS REQUIRES     42032 WORDS.

 SYMMETRIES FOR INITIAL GUESS ORBITALS FOLLOW.   BOTH SET(S).
    15 ORBITALS ARE OCCUPIED (    4 CORE ORBITALS).
     5=A        6=A        7=A        8=A        9=A       10=A       11=A   
    12=A       13=A       14=A       15=A       16=A       17=A       18=A   
    19=A       20=A       21=A       22=A       23=A       24=A       25=A   
 ...... END OF INITIAL ORBITAL SELECTION ......
 STEP CPU TIME =     0.01 TOTAL CPU TIME =          0.0 (      0.0 MIN)
 TOTAL WALL CLOCK TIME=          0.1 SECONDS, CPU UTILIZATION IS    50.00%

                    ----------------------
                    AO INTEGRAL TECHNOLOGY
                    ----------------------
     S,P,L SHELL ROTATED AXIS INTEGRALS, REPROGRAMMED BY
        KAZUYA ISHIMURA (IMS) AND JOSE SIERRA (SYNSTAR).
     S,P,D,L SHELL ROTATED AXIS INTEGRALS PROGRAMMED BY
        KAZUYA ISHIMURA (INSTITUTE FOR MOLECULAR SCIENCE).
     S,P,D,F,G SHELL TO TOTAL QUARTET ANGULAR MOMENTUM SUM 5,
        ERIC PROGRAM BY GRAHAM FLETCHER (ELORET AND NASA ADVANCED
        SUPERCOMPUTING DIVISION, AMES RESEARCH CENTER).
     S,P,D,F,G,L SHELL GENERAL RYS QUADRATURE PROGRAMMED BY
        MICHEL DUPUIS (PACIFIC NORTHWEST NATIONAL LABORATORY).

          --------------------
          2 ELECTRON INTEGRALS
          --------------------

 DIRECT SCF METHOD SKIPS INTEGRAL STORAGE ON DISK.
 DIRECT TRANSFORMATION SKIPS AO INTEGRAL STORAGE ON DISK.
  ...... END OF TWO-ELECTRON INTEGRALS .....
 STEP CPU TIME =     0.00 TOTAL CPU TIME =          0.0 (      0.0 MIN)
 TOTAL WALL CLOCK TIME=          0.1 SECONDS, CPU UTILIZATION IS    33.33%

          --------------------------
             R-B3LYP SCF CALCULATION
          --------------------------

     NUCLEAR ENERGY =       102.7744777674
     MAXIT =  200     NPUNCH=    2
     EXTRAP=T  DAMP=F  SHIFT=F  RSTRCT=F  DIIS=T  DEM=F  SOSCF=F
         DENSITY MATRIX CONVERGENCE THRESHOLD=  2.00E-05
     COARSE -> FINE DFT GRID SWITCH THRESHOLD=  3.00E-04 (SWITCH IN $DFT)
                   HF -> DFT SWITCH THRESHOLD=  5.00E-03 (SWOFF IN $DFT)
     MEMORY REQUIRED FOR RHF ITERS=    620217 WORDS.

 DIRECT SCF CALCULATION, SCHWRZ=T   FDIFF=T,  DIRTHR=  0.00E+00 NITDIR=10
 SCHWARZ INEQUALITY OVERHEAD:      2343 INTEGRALS, T=        0.00

 DFT CODE IS SWITCHING FROM THE FINE GRID NRAD= 96,  NLEB=  590
                      TO THE COARSE GRID NRAD0= 24, NLEB0=  110

     EXCHANGE FUNCTIONAL   =B88&HFX   
     CORRELATION FUNCTIONAL=LYP88&VWN5
     DFT THRESHOLD         =.883E-08
     GRID CHANGE THRESHOLD =.300E-03
 FOR AN EULER-MACLAURIN QUADRATURE USING  96 RADIAL POINTS:
 SMALLEST GAUSSIAN PRIMITIVE EXPONENT=        0.1612777588 OF TYPE -S-
 ON ATOM NUMBER   5 HAS RADIAL NORMALIZATION=  1.000000
  LARGEST GAUSSIAN PRIMITIVE EXPONENT=     5484.6716600000 OF TYPE -S-
 ON ATOM NUMBER   4 HAS RADIAL NORMALIZATION=  1.000000
 DFT IS SWITCHED OFF, PERFORMING PURE SCF UNTIL SWOFF THRESHOLD IS REACHED.

                                                                                   NONZERO     BLOCKS
 ITER EX DEM     TOTAL ENERGY        E CHANGE  DENSITY CHANGE    DIIS ERROR      INTEGRALS    SKIPPED
          * * *   INITIATING DIIS PROCEDURE   * * *
   1  0  0     -190.2059588388  -190.2059588388   0.303768578   0.496803495        2580013       4288
   2  1  0     -190.6947123431    -0.4887535043   0.149742519   0.107666067        2579801       4555
   3  2  0     -190.7348259696    -0.0401136266   0.071191481   0.094529475        2574324       4970
   4  3  0     -190.7584953333    -0.0236693637   0.012031830   0.006457830        2564259       5379
   5  4  0     -190.7590515622    -0.0005562289   0.006717580   0.003397322        2541666       6037
   6  5  0     -190.7591373358    -0.0000857736   0.002978119   0.001284825        2521530       6682
 CONVERGED TO SWOFF, SO DFT CALCULATION IS NOW SWITCHED ON.
          * * *   INITIATING DIIS PROCEDURE   * * *
   7  6  0     -191.7804420640    -1.0213047282   0.123116687   0.099019386        2580347       4301
   8  7  0     -191.7979377987    -0.0174957346   0.073293536   0.029761427        2575959       4859
   9  8  0     -191.7925871640     0.0053506347   0.058366434   0.048226281        2565701       5245
  10  9  0     -191.8022659393    -0.0096787753   0.009800608   0.011532578        2558832       5523
  11 10  0     -191.8025937242    -0.0003277849   0.001534518   0.000866108        2528097       6262
  12 11  0     -191.8025955738    -0.0000018497   0.000828823   0.000609195        2470453       7698
  13 12  0     -191.8025978645    -0.0000022907   0.000082537   0.000068973        2418981       8950
 DFT CODE IS SWITCHING BACK TO THE FINE GRID
          * * *   INITIATING DIIS PROCEDURE   * * *
  14 13  0     -191.8004407814     0.0021570831   0.003327620   0.001607158        2580363       4266
  15 14  0     -191.8004492045    -0.0000084230   0.000374807   0.000132503        2502102       7167
  16 15  0     -191.8004492304    -0.0000000259   0.000260978   0.000188350        2417554       9225
  17 16  0     -191.8004493397    -0.0000001093   0.000138563   0.000103362        2367046      10348
  18 17  0     -191.8004493705    -0.0000000308   0.000037434   0.000030692        2336379      10986
  19 18  0     -191.8004493742    -0.0000000038   0.000008910   0.000004558        2273909      12184
  20 19  0     -191.8004493743    -0.0000000001   0.000004256   0.000002703        2170011      14751

          -----------------
          DENSITY CONVERGED
          -----------------
     TIME TO FORM FOCK OPERATORS=       9.5 SECONDS (       0.5 SEC/ITER)
     FOCK TIME ON FIRST ITERATION=       0.1, LAST ITERATION=       1.1
     TIME TO SOLVE SCF EQUATIONS=       0.1 SECONDS (       0.0 SEC/ITER)

 FINAL R-B3LYP ENERGY IS     -191.8004493743 AFTER  20 ITERATIONS
 DFT EXCHANGE + CORRELATION ENERGY =       -21.1472809230
 TOTAL ELECTRON NUMBER             =        30.0000016951

          ------------
          EIGENVECTORS
          ------------

                      1          2          3          4          5
                  -19.1431   -10.2737   -10.2162   -10.2067    -1.0333
                     A          A          A          A          A   
    1  C  1  S    0.000025  -0.000055   0.991709  -0.044654  -0.004035
    2  C  1  S    0.000119  -0.000245   0.049211  -0.002760   0.010105
    3  C  1  X    0.000026  -0.000005   0.000022  -0.000343   0.004190
    4  C  1  Y   -0.000084   0.000148  -0.000055   0.000205  -0.005756
    5  C  1  Z   -0.000009  -0.000001   0.000003   0.000062  -0.000740
    6  C  1  S   -0.000166   0.000032  -0.012715   0.005908   0.010383
    7  C  1  X   -0.000048   0.000104  -0.000778   0.001489   0.005291
    8  C  1  Y    0.000624  -0.000753   0.000477  -0.001703   0.011746
    9  C  1  Z    0.000013  -0.000007   0.000130  -0.000269  -0.001036
   10  C  1 XX    0.000030   0.000072  -0.009288   0.000059   0.000086
   11  C  1 YY   -0.000002   0.000021  -0.009417   0.000203   0.000206
   12  C  1 ZZ    0.000068  -0.000127  -0.009769   0.000305   0.000141
   13  C  1 XY    0.000016  -0.000044  -0.000119   0.000063  -0.000277
   14  C  1 XZ    0.000007  -0.000041  -0.000105   0.000053  -0.000003
   15  C  1 YZ   -0.000004   0.000007   0.000023  -0.000012   0.000053
   16  C  2  S   -0.000013   0.002088   0.044168   0.991766  -0.020959
   17  C  2  S   -0.000002  -0.000074   0.001691   0.049645   0.038160
   18  C  2  X   -0.000035   0.000079   0.000360  -0.000262   0.007348
   19  C  2  Y   -0.000027   0.000315  -0.000184  -0.000071  -0.028560
   20  C  2  Z    0.000007  -0.000013  -0.000065   0.000051  -0.000906
   21  C  2  S    0.000719   0.003059   0.003848  -0.015717   0.024993
   22  C  2  X    0.000514  -0.000534  -0.001407   0.001786   0.015094
   23  C  2  Y   -0.000171  -0.001536   0.000968   0.001273  -0.014914
   24  C  2  Z   -0.000069   0.000064   0.000263  -0.000330  -0.002052
   25  C  2 XX   -0.000044  -0.000217  -0.000693  -0.009167  -0.000695
   26  C  2 YY   -0.000041  -0.000545  -0.000679  -0.009338   0.007493
   27  C  2 ZZ   -0.000020  -0.000172  -0.000565  -0.009628  -0.002422
   28  C  2 XY    0.000053   0.000045   0.000032  -0.000146  -0.002069
   29  C  2 XZ    0.000000   0.000009   0.000027  -0.000098  -0.000376
   30  C  2 YZ   -0.000009  -0.000005  -0.000007   0.000028   0.000236
   31  C  3  S    0.000013   0.992818  -0.000115  -0.002359  -0.118040
   32  C  3  S    0.000545   0.048716  -0.000187  -0.000382   0.230103
   33  C  3  X    0.000037   0.000697   0.000015  -0.000015   0.157198
   34  C  3  Y    0.000033  -0.000326  -0.000015  -0.000269  -0.081901
   35  C  3  Z   -0.000007  -0.000085  -0.000004   0.000004  -0.019573
   36  C  3  S   -0.003330  -0.008835   0.000013   0.005151   0.071123
   37  C  3  X   -0.002927   0.002640  -0.000604   0.000006  -0.036531
   38  C  3  Y    0.000925  -0.001927   0.000210   0.002088  -0.000453
   39  C  3  Z    0.000376  -0.000346   0.000082   0.000010   0.004733
   40  C  3 XX   -0.000658  -0.008698  -0.000038  -0.000138   0.014150
   41  C  3 YY   -0.000220  -0.009177   0.000042  -0.000498  -0.008782
   42  C  3 ZZ   -0.000022  -0.009700  -0.000060  -0.000138  -0.018700
   43  C  3 XY    0.000401  -0.000495  -0.000025  -0.000040  -0.019055
   44  C  3 XZ    0.000092  -0.000147  -0.000007   0.000007  -0.004811
   45  C  3 YZ   -0.000049   0.000062   0.000005   0.000009   0.002386
   46  O  4  S    0.992766  -0.000130  -0.000037   0.000026  -0.194543
   47  O  4  S    0.025691   0.000383  -0.000166   0.000073   0.425101
   48  O  4  X   -0.000998   0.000036   0.000007  -0.000012  -0.138800
   49  O  4  Y    0.000545  -0.000038  -0.000014   0.000027   0.079530
   50  O  4  Z    0.000124  -0.000006   0.000001  -0.000002   0.017242
   51  O  4  S    0.013685  -0.002742   0.000942  -0.000764   0.400376
   52  O  4  X   -0.001334   0.001725  -0.000172   0.000121  -0.047386
   53  O  4  Y    0.000874  -0.000849   0.000214  -0.000346   0.030994
   54  O  4  Z    0.000160  -0.000206   0.000014  -0.000006   0.005775
   55  O  4 XX   -0.007714  -0.000214  -0.000113   0.000111   0.005025
   56  O  4 YY   -0.007949   0.000120  -0.000073   0.000115  -0.005410
   57  O  4 ZZ   -0.008100   0.000395  -0.000116   0.000019  -0.005711
   58  O  4 XY   -0.000268   0.000291  -0.000029   0.000023  -0.010632
   59  O  4 XZ   -0.000056   0.000087  -0.000000  -0.000013  -0.001538
   60  O  4 YZ    0.000033  -0.000035   0.000002  -0.000000   0.001325
   61  H  5  S    0.000095  -0.000125  -0.000336  -0.000126   0.003055
   62  H  5  S    0.000041  -0.000068   0.002165  -0.000505   0.003859
   63  H  6  S   -0.000036   0.000045  -0.000335  -0.000016   0.000047
   64  H  6  S   -0.000313   0.000526   0.002124   0.000082  -0.007299
   65  H  7  S   -0.000026  -0.000041  -0.000101  -0.000356   0.007854
   66  H  7  S   -0.000309   0.000317  -0.000000   0.001663  -0.001544
   67  H  8  S   -0.000043  -0.000259  -0.000063  -0.000111   0.028519
   68  H  8  S   -0.000541   0.002451  -0.000204  -0.000108  -0.016719

                      6          7          8          9         10
                   -0.7984    -0.6445    -0.5739    -0.4768    -0.4691
                     A          A          A          A          A   
    1  C  1  S   -0.145317  -0.131309   0.048597  -0.008166  -0.006325
    2  C  1  S    0.280668   0.262794  -0.097655   0.015274   0.015598
    3  C  1  X    0.084543  -0.044328   0.163249  -0.249793  -0.195720
    4  C  1  Y   -0.054713   0.070751   0.020800  -0.166559   0.302325
    5  C  1  Z   -0.015101   0.008630  -0.029094   0.046345   0.036438
    6  C  1  S    0.219519   0.245279  -0.106038   0.051845   0.004016
    7  C  1  X    0.004810  -0.022753   0.052756  -0.083488  -0.076239
    8  C  1  Y   -0.014313   0.029896   0.014019  -0.066534   0.126021
    9  C  1  Z   -0.000853   0.004306  -0.009262   0.015605   0.014427
   10  C  1 XX    0.005609  -0.000422   0.003627   0.004984  -0.005134
   11  C  1 YY    0.002337   0.004302  -0.006737  -0.000437   0.014090
   12  C  1 ZZ   -0.014595  -0.011805   0.004545  -0.000792  -0.000324
   13  C  1 XY   -0.004469   0.007263  -0.006889   0.007508   0.008569
   14  C  1 XZ   -0.004363  -0.002454   0.000289  -0.001225   0.001042
   15  C  1 YZ    0.000833  -0.001268   0.001187  -0.001496  -0.001458
   16  C  2  S   -0.159911   0.057330  -0.096585   0.008815   0.031398
   17  C  2  S    0.313164  -0.117207   0.196057  -0.015941  -0.068406
   18  C  2  X   -0.087060  -0.100680   0.147257   0.002812   0.279623
   19  C  2  Y    0.014289   0.186400   0.112569  -0.261915  -0.054124
   20  C  2  Z    0.015701   0.019079  -0.024430   0.002405  -0.049606
   21  C  2  S    0.202997  -0.103063   0.212652  -0.012563  -0.022411
   22  C  2  X    0.009747  -0.030342   0.050951   0.013179   0.061669
   23  C  2  Y    0.012330   0.038310   0.023503  -0.107243   0.000427
   24  C  2  Z   -0.001685   0.005748  -0.008617  -0.000572  -0.011100
   25  C  2 XX    0.004546   0.008547   0.004286  -0.001606  -0.001567
   26  C  2 YY   -0.001048  -0.009796  -0.006128   0.000658   0.012082
   27  C  2 ZZ   -0.014884   0.005033  -0.007626   0.000746   0.001406
   28  C  2 XY   -0.001678  -0.009856   0.003724  -0.001741   0.001455
   29  C  2 XZ   -0.004190  -0.000765  -0.002486   0.000432   0.000640
   30  C  2 YZ    0.000375   0.001650  -0.000772  -0.000020  -0.000221
   31  C  3  S   -0.051189   0.116339   0.085276   0.013214  -0.051513
   32  C  3  S    0.101191  -0.246812  -0.180851  -0.025978   0.124022
   33  C  3  X   -0.069400   0.114312   0.188368   0.141840   0.151528
   34  C  3  Y    0.114151  -0.129908   0.130429   0.289246   0.003894
   35  C  3  Z    0.009408  -0.013493  -0.025316  -0.014986  -0.025026
   36  C  3  S    0.082008  -0.211369  -0.181278  -0.066379   0.106389
   37  C  3  X   -0.029403   0.046303   0.075695   0.034489   0.049688
   38  C  3  Y    0.028940  -0.028536   0.017237   0.088469   0.009668
   39  C  3  Z    0.004203  -0.005437  -0.010288  -0.002696  -0.009514
   40  C  3 XX   -0.006377   0.007271  -0.003515  -0.005022  -0.002582
   41  C  3 YY    0.010612  -0.004052   0.007769  -0.000425  -0.008552
   42  C  3 ZZ   -0.004428   0.008345   0.006542   0.001874  -0.004452
   43  C  3 XY    0.004153  -0.013461  -0.006086  -0.004206   0.007926
   44  C  3 XZ    0.000220   0.000175   0.001514   0.001049  -0.000396
   45  C  3 YZ   -0.000372   0.001775   0.000642   0.000666  -0.001325
   46  O  4  S    0.040162  -0.067891  -0.035212  -0.013970   0.065523
   47  O  4  S   -0.093206   0.155287   0.081113   0.023783  -0.136914
   48  O  4  X    0.011371   0.040725   0.099940   0.132951  -0.189861
   49  O  4  Y    0.009201  -0.046789   0.047382   0.142531   0.187783
   50  O  4  Z   -0.001240  -0.004805  -0.013338  -0.014693   0.019163
   51  O  4  S   -0.081547   0.188985   0.099731   0.080088  -0.281302
   52  O  4  X   -0.003000   0.024750   0.054745   0.061960  -0.089020
   53  O  4  Y    0.005078  -0.026786   0.021078   0.085415   0.098504
   54  O  4  Z    0.000313  -0.002986  -0.007192  -0.006825   0.008717
   55  O  4 XX   -0.000183  -0.006021  -0.011820  -0.015532   0.013726
   56  O  4 YY    0.001385  -0.004530   0.005497   0.008453   0.011671
   57  O  4 ZZ   -0.000606   0.000973   0.000721  -0.002737   0.000291
   58  O  4 XY   -0.001089   0.005194  -0.000490  -0.007215  -0.012101
   59  O  4 XZ   -0.000079   0.001003   0.001897   0.001738  -0.001652
   60  O  4 YZ    0.000144  -0.000626   0.000010   0.000973   0.001294
   61  H  5  S    0.074622   0.105503  -0.120462   0.178735   0.027429
   62  H  5  S    0.009571   0.036119  -0.065291   0.123012   0.022723
   63  H  6  S    0.071624   0.132462  -0.037903  -0.078204   0.189891
   64  H  6  S    0.014797   0.047607  -0.020186  -0.057006   0.134487
   65  H  7  S    0.074851  -0.044135   0.170095  -0.076749   0.092507
   66  H  7  S    0.002419  -0.008731   0.084652  -0.050117   0.072426
   67  H  8  S    0.033749  -0.105425  -0.180401  -0.150949  -0.016471
   68  H  8  S    0.004353  -0.030118  -0.096198  -0.106524  -0.019186

                     11         12         13         14         15
                   -0.4134    -0.3923    -0.3908    -0.2881    -0.2530
                     A          A          A          A          A   
    1  C  1  S    0.020154  -0.006517   0.005193   0.000088  -0.009462
    2  C  1  S   -0.046385   0.012807  -0.010660  -0.000488   0.016129
    3  C  1  X   -0.176874   0.179833  -0.070160   0.067996   0.055008
    4  C  1  Y    0.149029   0.232142  -0.085906  -0.000757  -0.049689
    5  C  1  Z    0.025561   0.008433   0.107168   0.368914  -0.013722
    6  C  1  S   -0.073114   0.031472  -0.024430   0.000521   0.126194
    7  C  1  X   -0.068911   0.073590  -0.026346   0.050580   0.087177
    8  C  1  Y    0.047585   0.087520  -0.032502  -0.002226  -0.055722
    9  C  1  Z    0.008912   0.009490   0.058417   0.269661  -0.020226
   10  C  1 XX   -0.000440  -0.017511   0.009311   0.003974   0.005450
   11  C  1 YY    0.007779   0.017617  -0.006858  -0.000021  -0.007098
   12  C  1 ZZ    0.000477  -0.001969  -0.000859  -0.004048  -0.000894
   13  C  1 XY    0.006122  -0.014658   0.005913  -0.001414   0.003661
   14  C  1 XZ   -0.000211   0.005688   0.003237   0.012454  -0.001439
   15  C  1 YZ   -0.000741   0.001065  -0.005031  -0.007497  -0.000566
   16  C  2  S    0.001532   0.013392  -0.005582   0.000476   0.039456
   17  C  2  S   -0.007263  -0.023002   0.008832  -0.000390  -0.075882
   18  C  2  X    0.226407  -0.162438   0.123572   0.062303  -0.029949
   19  C  2  Y   -0.064908  -0.175220   0.073249   0.000764   0.217145
   20  C  2  Z   -0.054124   0.101363   0.146470   0.354124   0.004298
   21  C  2  S    0.028698  -0.060280   0.030377  -0.005235  -0.340102
   22  C  2  X    0.032394  -0.046479   0.041824   0.041577   0.075212
   23  C  2  Y   -0.018883  -0.068174   0.030715  -0.000314   0.110133
   24  C  2  Z   -0.013742   0.049410   0.086571   0.237865  -0.011764
   25  C  2 XX    0.000536  -0.018088   0.006890  -0.004581   0.007398
   26  C  2 YY    0.004251   0.013605  -0.005493   0.000022  -0.004198
   27  C  2 ZZ   -0.000511   0.001127   0.000342   0.004778   0.002065
   28  C  2 XY    0.014935  -0.015123   0.006652   0.001433   0.000406
   29  C  2 XZ    0.000065   0.003039  -0.003784  -0.014659  -0.000616
   30  C  2 YZ   -0.001775  -0.000757  -0.008936   0.007407  -0.000209
   31  C  3  S    0.017487  -0.021685   0.009793  -0.000313   0.001367
   32  C  3  S   -0.053302   0.046410  -0.021869   0.000253  -0.014453
   33  C  3  X   -0.298982  -0.013421   0.037121  -0.009767  -0.057518
   34  C  3  Y    0.101368   0.208329  -0.086320  -0.001260  -0.121927
   35  C  3  Z    0.015665   0.147862   0.329331  -0.045963   0.007599
   36  C  3  S    0.003449   0.077850  -0.030628   0.005164   0.002593
   37  C  3  X   -0.027315  -0.002419   0.028453  -0.002406  -0.031881
   38  C  3  Y    0.009029   0.077191  -0.034077  -0.002438   0.074595
   39  C  3  Z   -0.009005   0.083252   0.187856  -0.031332   0.004843
   40  C  3 XX    0.001599   0.000237   0.004392  -0.003377   0.037101
   41  C  3 YY    0.007608  -0.001899   0.001235  -0.000022  -0.034630
   42  C  3 ZZ    0.005552  -0.001156  -0.003607   0.003595  -0.000849
   43  C  3 XY    0.019369   0.000469   0.000981   0.003558   0.025181
   44  C  3 XZ   -0.000398   0.007795   0.016900  -0.015537  -0.005603
   45  C  3 YZ   -0.002693  -0.001775  -0.004727   0.020239  -0.003134
   46  O  4  S   -0.061378  -0.015171   0.003967   0.000228  -0.000519
   47  O  4  S    0.122556   0.027707  -0.006823  -0.000091  -0.006300
   48  O  4  X    0.366429   0.183706  -0.001040  -0.029965   0.274125
   49  O  4  Y   -0.228455   0.069384  -0.043187  -0.001602   0.519192
   50  O  4  Z   -0.067587   0.150549   0.400158  -0.281800  -0.034135
   51  O  4  S    0.268497   0.083793  -0.025680  -0.003887   0.043523
   52  O  4  X    0.198108   0.099643   0.004159  -0.020752   0.187191
   53  O  4  Y   -0.122122   0.046588  -0.027452  -0.001364   0.373714
   54  O  4  Z   -0.037498   0.093561   0.243873  -0.203424  -0.023456
   55  O  4 XX   -0.019886  -0.014641  -0.000441   0.002743  -0.015964
   56  O  4 YY   -0.008671   0.003992  -0.002055   0.000233   0.012031
   57  O  4 ZZ   -0.000555   0.001303   0.005314  -0.002463  -0.002685
   58  O  4 XY    0.015407  -0.001902   0.003713  -0.000535  -0.009945
   59  O  4 XZ    0.004171  -0.008092  -0.023116   0.012491   0.001920
   60  O  4 YZ   -0.002718   0.006236   0.013255  -0.006159   0.001205
   61  H  5  S    0.038930  -0.184978   0.080897  -0.000477   0.014065
   62  H  5  S    0.047381  -0.175459   0.078769   0.000035   0.046286
   63  H  6  S    0.079796   0.167368  -0.064800   0.000120  -0.042351
   64  H  6  S    0.082291   0.150530  -0.057176   0.000868  -0.054386
   65  H  7  S    0.113604  -0.184612   0.090877   0.000194   0.026085
   66  H  7  S    0.123072  -0.157965   0.079087   0.001800   0.068582
   67  H  8  S    0.116817  -0.027264   0.020999   0.004124   0.166525
   68  H  8  S    0.129874  -0.043984   0.028928   0.003767   0.255623

                     16         17         18         19         20
                   -0.0609     0.0581     0.1095     0.1145     0.1537
                     A          A          A          A          A   
    1  C  1  S   -0.001065  -0.003870  -0.115384  -0.004087   0.055459
    2  C  1  S    0.003025   0.008866   0.183204   0.001675  -0.084711
    3  C  1  X    0.067634  -0.040353  -0.180633  -0.112599   0.115254
    4  C  1  Y   -0.003113   0.001911   0.100799  -0.226810   0.132265
    5  C  1  Z    0.364586  -0.223415   0.034982   0.014187  -0.027211
    6  C  1  S    0.008095   0.036669   1.804109   0.002080  -0.862850
    7  C  1  X    0.075975  -0.096079  -0.505893  -0.249369   0.241741
    8  C  1  Y    0.002649   0.023999   0.324424  -0.598365   0.438588
    9  C  1  Z    0.428008  -0.459336   0.102091   0.030597  -0.054981
   10  C  1 XX   -0.002544   0.008006   0.002655  -0.013231   0.021765
   11  C  1 YY   -0.000435  -0.001033  -0.016324   0.015056  -0.010677
   12  C  1 ZZ    0.002975  -0.007559  -0.004979  -0.003046   0.000924
   13  C  1 XY    0.001533  -0.001080  -0.002759  -0.005271   0.010698
   14  C  1 XZ   -0.008725   0.023818  -0.002382   0.003001  -0.003973
   15  C  1 YZ    0.007583  -0.007421   0.000422   0.000722  -0.002448
   16  C  2  S   -0.000241  -0.002084  -0.003416   0.071158   0.014578
   17  C  2  S   -0.000555   0.001048  -0.011325  -0.110684  -0.021176
   18  C  2  X   -0.037888   0.078072   0.075792  -0.194101  -0.014870
   19  C  2  Y    0.002907   0.000771   0.044392  -0.100616   0.197931
   20  C  2  Z   -0.206676   0.408165  -0.022690   0.045636   0.009819
   21  C  2  S    0.007052   0.053932   0.398452  -1.071900  -0.158417
   22  C  2  X   -0.043161   0.122008   0.314447  -0.425485  -0.004621
   23  C  2  Y    0.001594  -0.011391  -0.117437  -0.090451   0.620618
   24  C  2  Z   -0.260137   0.649760  -0.068266   0.098270   0.022371
   25  C  2 XX   -0.004678   0.004461   0.000261   0.017593  -0.021699
   26  C  2 YY   -0.000319  -0.000263  -0.001528  -0.008631   0.026026
   27  C  2 ZZ    0.004545  -0.004887   0.000398   0.003209  -0.001775
   28  C  2 XY    0.003296   0.000302  -0.005576   0.021350   0.007296
   29  C  2 XZ   -0.013954   0.014535  -0.000386  -0.002634   0.004360
   30  C  2 YZ    0.024651   0.015320   0.000189  -0.002951  -0.000768
   31  C  3  S   -0.000295   0.000719  -0.042068  -0.032790  -0.109671
   32  C  3  S   -0.000158   0.000708   0.078684   0.035771   0.180729
   33  C  3  X   -0.043163  -0.045938  -0.110702  -0.154620  -0.237037
   34  C  3  Y   -0.001342   0.000380  -0.096284  -0.087596  -0.012071
   35  C  3  Z   -0.338932  -0.400046   0.028809   0.006878   0.022610
   36  C  3  S    0.003753  -0.028026   0.485567   0.614489   1.579573
   37  C  3  X   -0.042654  -0.058963  -0.260671  -0.353402  -0.787620
   38  C  3  Y   -0.000583  -0.015885  -0.434507  -0.038445   0.158704
   39  C  3  Z   -0.312963  -0.568769   0.052852   0.019442   0.093295
   40  C  3 XX    0.004129   0.004032  -0.006855   0.005844  -0.010650
   41  C  3 YY   -0.000475   0.000592  -0.002891  -0.006512  -0.018724
   42  C  3 ZZ   -0.004098  -0.004162   0.002918  -0.005987   0.002985
   43  C  3 XY   -0.003127   0.004220   0.016470  -0.018093   0.000671
   44  C  3 XZ    0.018987   0.020665   0.001088  -0.001330   0.002293
   45  C  3 YZ   -0.020971   0.014435  -0.002571   0.003187   0.000361
   46  O  4  S   -0.000301   0.001169   0.014495  -0.006340  -0.004952
   47  O  4  S    0.001180  -0.004092  -0.031684   0.005077  -0.016734
   48  O  4  X    0.044231   0.033410   0.086458  -0.012606   0.072744
   49  O  4  Y    0.004522  -0.006438   0.009853   0.041200   0.010242
   50  O  4  Z    0.348591   0.242758  -0.019061   0.010737  -0.007125
   51  O  4  S    0.001405  -0.007629  -0.141562   0.098285   0.213056
   52  O  4  X    0.041721   0.042140   0.146465   0.009625   0.035457
   53  O  4  Y    0.003530  -0.003746   0.059100   0.083803   0.071112
   54  O  4  Z    0.329497   0.309030  -0.028619   0.010456  -0.001786
   55  O  4 XX   -0.000439   0.000933  -0.000017  -0.002686  -0.001212
   56  O  4 YY    0.000082   0.000117   0.003682  -0.007538  -0.014819
   57  O  4 ZZ    0.000770  -0.001881   0.003869  -0.003040  -0.004740
   58  O  4 XY   -0.000179   0.000270  -0.000156   0.003126  -0.008186
   59  O  4 XZ   -0.002586   0.006236   0.000213   0.000096  -0.000187
   60  O  4 YZ   -0.000144   0.002079   0.000050  -0.000447   0.001113
   61  H  5  S    0.001692   0.000678  -0.043733  -0.048038   0.108657
   62  H  5  S   -0.002516  -0.017662  -1.185781  -0.799617   1.113178
   63  H  6  S   -0.001797  -0.004507  -0.084385   0.046368  -0.049458
   64  H  6  S   -0.009208  -0.045248  -1.283628   0.831068  -0.260202
   65  H  7  S   -0.003360  -0.005400   0.004221   0.114569  -0.016606
   66  H  7  S   -0.010647  -0.036791  -0.322689   1.321919  -0.253530
   67  H  8  S   -0.001126   0.004565   0.010960  -0.052960  -0.088615
   68  H  8  S   -0.006149   0.025150  -0.733588  -0.825756  -1.561179

                     21         22         23         24         25
                    0.1921     0.2632     0.3163     0.3516     0.5081
                     A          A          A          A          A   
    1  C  1  S   -0.050664  -0.019639   0.074330   0.024472   0.000860
    2  C  1  S    0.077776  -0.043692  -0.028854   0.027606  -0.026007
    3  C  1  X    0.119854  -0.137546  -0.009845  -0.192982  -0.153717
    4  C  1  Y    0.263593   0.122314   0.119180  -0.096982   0.024051
    5  C  1  Z   -0.019976   0.032030   0.007447   0.037134  -0.625901
    6  C  1  S    0.612439   1.188215  -2.327967  -2.187059  -0.054429
    7  C  1  X    0.694814   0.134785  -1.721247  -2.071372   0.107767
    8  C  1  Y    1.011114  -0.548848   1.754128   0.199296  -0.007610
    9  C  1  Z   -0.119887  -0.040109   0.307035   0.380714   0.611020
   10  C  1 XX   -0.010887  -0.012306   0.002642   0.032446  -0.013246
   11  C  1 YY    0.003463   0.022561  -0.002228  -0.043308   0.000095
   12  C  1 ZZ   -0.003217  -0.008007   0.008190   0.007345   0.009722
   13  C  1 XY    0.006701  -0.001292  -0.049962   0.014775   0.001047
   14  C  1 XZ    0.001736   0.001811   0.001308  -0.005581  -0.029551
   15  C  1 YZ   -0.001058   0.000950   0.009543  -0.002794   0.007281
   16  C  2  S    0.092424   0.017403  -0.115727   0.024875  -0.004816
   17  C  2  S   -0.147705   0.060497   0.145240  -0.090945  -0.007273
   18  C  2  X   -0.148234   0.127511  -0.283583  -0.089081  -0.069380
   19  C  2  Y   -0.097803   0.014462  -0.097137   0.289962  -0.026565
   20  C  2  Z    0.026841  -0.014995   0.050914   0.017342  -0.439451
   21  C  2  S   -1.578405  -1.269062   3.460194   0.712957   0.055554
   22  C  2  X   -0.813932   1.044793  -1.957775  -1.906473  -0.050001
   23  C  2  Y   -0.626818   0.802811  -0.436354   2.545572   0.074994
   24  C  2  Z    0.136367  -0.155293   0.362630   0.324593   0.213591
   25  C  2 XX   -0.009319   0.004540   0.008274  -0.025718   0.005217
   26  C  2 YY    0.022097   0.012748  -0.007923   0.036507  -0.002351
   27  C  2 ZZ   -0.000282   0.002892  -0.003234  -0.009176  -0.007732
   28  C  2 XY   -0.014214   0.034601   0.012821  -0.004306   0.005119
   29  C  2 XZ    0.001805   0.000646  -0.001838   0.002793   0.035032
   30  C  2 YZ    0.002620  -0.004833  -0.001728   0.000158   0.003846
   31  C  3  S   -0.006950   0.030783   0.074376  -0.065741   0.002859
   32  C  3  S    0.033577   0.002952  -0.026763   0.062810  -0.024060
   33  C  3  X    0.072946  -0.096578  -0.120869   0.182401  -0.081318
   34  C  3  Y    0.210724   0.164887  -0.144006   0.418653  -0.003985
   35  C  3  Z   -0.009460   0.009531   0.021780  -0.015184  -0.667816
   36  C  3  S   -0.276752  -0.784024  -1.747770   2.020962   0.074058
   37  C  3  X    0.430399  -1.730434  -0.009209   1.410818   0.134292
   38  C  3  Y    0.305301   1.596540  -0.680924   1.267688  -0.017204
   39  C  3  Z   -0.060146   0.218305  -0.029376  -0.199030   0.704032
   40  C  3 XX    0.001095   0.012260   0.010740   0.006001  -0.004297
   41  C  3 YY   -0.007620  -0.005060   0.015212  -0.023240   0.002348
   42  C  3 ZZ    0.003169  -0.018117  -0.011337   0.015561   0.001951
   43  C  3 XY   -0.009647  -0.011145  -0.018183  -0.016062  -0.007832
   44  C  3 XZ    0.000211  -0.004352  -0.001819   0.002527  -0.015484
   45  C  3 YZ    0.001035   0.002006   0.003273   0.002861  -0.014182
   46  O  4  S    0.004096  -0.105992  -0.036820   0.032859   0.000904
   47  O  4  S   -0.009449   0.101832   0.108217   0.044478   0.008166
   48  O  4  X   -0.067116  -0.173532  -0.062877   0.013875  -0.005368
   49  O  4  Y   -0.082943   0.027197   0.157931  -0.052284   0.015862
   50  O  4  Z    0.010850   0.021526   0.005917  -0.003949  -0.029022
   51  O  4  S   -0.089476   2.083530   0.338104  -1.008065  -0.059814
   52  O  4  X   -0.060134  -0.804953  -0.153336   0.198210   0.009924
   53  O  4  Y   -0.133918   0.279798   0.316354  -0.459632  -0.008536
   54  O  4  Z    0.009480   0.100287   0.024966  -0.019612  -0.078843
   55  O  4 XX   -0.004925  -0.015588   0.013185   0.014951   0.009752
   56  O  4 YY    0.002426  -0.049115  -0.000143   0.029950   0.001190
   57  O  4 ZZ   -0.000607  -0.061246  -0.003712   0.050968  -0.004088
   58  O  4 XY    0.001707  -0.031965  -0.000877  -0.001915   0.000046
   59  O  4 XZ    0.000458  -0.006418  -0.002897   0.004832   0.038817
   60  O  4 YZ   -0.000424   0.003982   0.001142   0.001149  -0.020741
   61  H  5  S   -0.010212  -0.051422  -0.129578   0.036409  -0.005875
   62  H  5  S    0.848102  -0.561229   0.196655  -1.175049  -0.005982
   63  H  6  S   -0.030493   0.043971  -0.019801  -0.189181  -0.000367
   64  H  6  S   -1.492689  -0.122259  -0.846682   0.301039  -0.010163
   65  H  7  S    0.019058   0.101880   0.038214  -0.031318  -0.004948
   66  H  7  S    1.690165  -0.765567   0.841880   0.184827   0.014885
   67  H  8  S   -0.026833   0.065730   0.048296  -0.043936  -0.012957
   68  H  8  S    0.608365  -0.050198   0.157900   1.199841   0.020574

                     26         27         28         29         30
                    0.5171     0.5585     0.5860     0.6197     0.6362
                     A          A          A          A          A   
    1  C  1  S   -0.009414   0.005950  -0.000308  -0.034155   0.001411
    2  C  1  S    0.364163  -0.264279   0.005769  -0.356737   0.000194
    3  C  1  X    0.549162   0.067419   0.131933   0.091144   0.072402
    4  C  1  Y   -0.251009   0.302577  -0.004823  -0.202593   0.010746
    5  C  1  Z   -0.145214  -0.007262   0.705243  -0.004057   0.451402
    6  C  1  S    0.635428   0.078871   0.001585   0.815251  -0.025168
    7  C  1  X   -0.491830  -0.727257  -0.148863  -0.400893  -0.135495
    8  C  1  Y    0.048243  -0.469740   0.003423   0.515125  -0.015777
    9  C  1  Z    0.133391   0.132382  -0.745879   0.056182  -0.883557
   10  C  1 XX    0.032777  -0.051767   0.003431  -0.047264  -0.002600
   11  C  1 YY    0.011959   0.011923   0.001275  -0.111999   0.001027
   12  C  1 ZZ    0.001367   0.001455  -0.004747   0.050671   0.003691
   13  C  1 XY   -0.019732  -0.052296  -0.005516  -0.007175   0.005909
   14  C  1 XZ   -0.009500   0.012796   0.014846   0.020284  -0.016948
   15  C  1 YZ    0.004584   0.008594  -0.027950   0.000927   0.026896
   16  C  2  S    0.072437  -0.004579   0.001426  -0.015943  -0.000899
   17  C  2  S    0.181195  -0.390110   0.013061  -0.357456  -0.010563
   18  C  2  X   -0.165267   0.054073   0.019171   0.027407  -0.167247
   19  C  2  Y    0.427492   0.512686  -0.010712  -0.179847   0.028312
   20  C  2  Z   -0.004848   0.013623   0.116939  -0.025543  -0.947655
   21  C  2  S   -0.632415   0.228999   0.003825   0.061521   0.024391
   22  C  2  X    1.055772  -0.397102  -0.032948   0.182424   0.252981
   23  C  2  Y   -0.751411   0.071330   0.006892   0.583368  -0.047733
   24  C  2  Z   -0.169888   0.039176  -0.242423  -0.011891   1.534095
   25  C  2 XX    0.095645  -0.021387  -0.010435  -0.037895   0.002189
   26  C  2 YY    0.052971  -0.094046   0.003876  -0.105185   0.000263
   27  C  2 ZZ   -0.050570   0.016728   0.011474   0.043088  -0.004913
   28  C  2 XY   -0.056460   0.039372   0.003984  -0.086855   0.007854
   29  C  2 XZ   -0.028068   0.006403  -0.041749   0.017007   0.016063
   30  C  2 YZ    0.009819  -0.006527   0.027335   0.014792   0.026200
   31  C  3  S   -0.032145  -0.045737  -0.000536   0.004049   0.000272
   32  C  3  S    0.323775  -0.480189   0.020159  -0.041200  -0.016214
   33  C  3  X   -0.037603   0.117150  -0.085563  -0.015561   0.003433
   34  C  3  Y    0.208817  -0.283828   0.012261  -0.480550   0.011192
   35  C  3  Z   -0.032868  -0.027220  -0.730025  -0.007155   0.223112
   36  C  3  S   -0.961417   1.287894  -0.009289   0.075690  -0.024300
   37  C  3  X   -0.590646   0.274977   0.129094   0.113883  -0.077912
   38  C  3  Y    0.308418   0.652259  -0.037817   1.307904  -0.021639
   39  C  3  Z    0.134662  -0.021247   1.022511   0.002846  -0.669757
   40  C  3 XX    0.026205  -0.043924  -0.003101  -0.006223   0.007897
   41  C  3 YY   -0.037188  -0.133016   0.003540   0.016118  -0.004200
   42  C  3 ZZ    0.016405   0.041574   0.003837  -0.011627  -0.005628
   43  C  3 XY    0.056647  -0.058117  -0.000916   0.073303  -0.008360
   44  C  3 XZ   -0.004113   0.011882  -0.018240  -0.000694   0.024460
   45  C  3 YZ   -0.010481   0.008935  -0.014526  -0.011787  -0.011067
   46  O  4  S   -0.017976   0.025437   0.000668  -0.002372  -0.000884
   47  O  4  S   -0.064198  -0.124179  -0.002921  -0.002336  -0.012484
   48  O  4  X   -0.022243  -0.020440  -0.006813  -0.038595  -0.019367
   49  O  4  Y   -0.210723  -0.038525   0.003738  -0.244964  -0.002628
   50  O  4  Z    0.001132   0.003441  -0.102387  -0.001388  -0.033037
   51  O  4  S    0.787987  -0.284124  -0.008641   0.278790   0.023820
   52  O  4  X   -0.291027   0.186334  -0.004725  -0.118283   0.014143
   53  O  4  Y    0.112462  -0.250841   0.000767  -0.038440   0.006940
   54  O  4  Z    0.025860  -0.024321  -0.090503   0.015191   0.135952
   55  O  4 XX   -0.025433  -0.019918   0.007910   0.038761  -0.010949
   56  O  4 YY   -0.000940  -0.037360  -0.000119   0.000027  -0.003716
   57  O  4 ZZ   -0.045676   0.005513  -0.009256  -0.016686  -0.001531
   58  O  4 XY   -0.032446   0.004811  -0.004016  -0.018057   0.007945
   59  O  4 XZ   -0.001140   0.004642   0.038036  -0.007925  -0.006300
   60  O  4 YZ    0.002145  -0.001176  -0.028637   0.002076   0.032549
   61  H  5  S   -0.071691  -0.373812  -0.005011  -0.222796   0.010008
   62  H  5  S   -0.203377  -0.354749  -0.004689  -0.152347   0.005838
   63  H  6  S    0.031380   0.138439   0.000626  -0.442839   0.011254
   64  H  6  S    0.083815   0.055458  -0.002929  -0.241948   0.013962
   65  H  7  S    0.196042   0.116614   0.011141  -0.446998   0.000666
   66  H  7  S   -0.224454  -0.067290  -0.001643  -0.034460   0.007917
   67  H  8  S    0.212092  -0.347781  -0.000160   0.333972  -0.011970
   68  H  8  S   -0.130069   0.205728  -0.010392   0.244662   0.006086

                     31         32         33         34         35
                    0.6625     0.6749     0.8118     0.8263     0.8566
                     A          A          A          A          A   
    1  C  1  S    0.064247   0.054521  -0.020696   0.003191  -0.001970
    2  C  1  S    0.152134   0.282549   0.474709  -0.008111   0.251959
    3  C  1  X   -0.342595  -0.198840  -0.022780  -0.564988   0.195743
    4  C  1  Y    0.174470   0.093693  -0.121532  -0.826499   0.346011
    5  C  1  Z    0.057548   0.040454  -0.000013   0.099534  -0.035291
    6  C  1  S   -0.421734  -0.989274  -1.869112   0.021721  -0.505111
    7  C  1  X    0.492783  -0.098594  -0.475626   1.491441  -0.567185
    8  C  1  Y   -0.273925  -0.118708   0.296955   2.303131  -0.755979
    9  C  1  Z   -0.071853   0.004862   0.103145  -0.263451   0.102286
   10  C  1 XX    0.149689   0.053465  -0.018492  -0.055078   0.069495
   11  C  1 YY    0.036542   0.108159   0.026256   0.059722  -0.045448
   12  C  1 ZZ   -0.067031  -0.049806   0.035246   0.005083   0.016244
   13  C  1 XY   -0.017831  -0.029523   0.009296  -0.051107   0.034987
   14  C  1 XZ   -0.046423  -0.023324   0.010540   0.012781  -0.011326
   15  C  1 YZ    0.001604   0.006808  -0.001486   0.009865  -0.005626
   16  C  2  S   -0.050153  -0.025113   0.025433  -0.013235   0.001487
   17  C  2  S    0.111014   0.392972   0.514556  -0.250297   0.007054
   18  C  2  X   -0.402998  -0.271445   0.379415   0.051912  -0.016406
   19  C  2  Y    0.377413  -0.074539  -0.154707   0.341855  -0.061889
   20  C  2  Z    0.102507   0.026295  -0.061204  -0.007750   0.000318
   21  C  2  S   -0.364151  -0.873412  -1.442531   0.839079   0.172767
   22  C  2  X    0.474182  -0.029296  -1.951704  -0.439707   0.076320
   23  C  2  Y   -0.190961   0.865310   1.277257  -1.841788   0.327886
   24  C  2  Z   -0.145871   0.040037   0.311228   0.076698  -0.012171
   25  C  2 XX   -0.089855   0.008622   0.105300   0.013280  -0.030675
   26  C  2 YY   -0.031638  -0.025607   0.012109  -0.040497   0.034310
   27  C  2 ZZ    0.049553   0.035325  -0.014075  -0.000539   0.003271
   28  C  2 XY    0.028984   0.000201   0.036073   0.043814  -0.044758
   29  C  2 XZ    0.028791   0.006036  -0.025893  -0.002120   0.007137
   30  C  2 YZ   -0.005343  -0.002330  -0.006092  -0.007725   0.009159
   31  C  3  S    0.027670  -0.049676  -0.001170  -0.032964  -0.044340
   32  C  3  S   -0.337036   0.388272   0.469277   0.181807   0.126135
   33  C  3  X   -0.460515   0.647770  -0.567297  -0.155835  -0.377396
   34  C  3  Y   -0.062491  -0.575357  -0.491695   0.081797  -0.139526
   35  C  3  Z    0.035076  -0.079895   0.071703   0.016856   0.044870
   36  C  3  S    0.008627   0.609446   0.310494  -1.899492  -0.845239
   37  C  3  X    0.665967  -0.303122   2.422917  -0.196439   0.264035
   38  C  3  Y    0.598603   1.202417   1.877672  -0.571611   0.349953
   39  C  3  Z   -0.032269   0.027056  -0.315807   0.028254  -0.030251
   40  C  3 XX    0.051186  -0.086208   0.054186  -0.078583  -0.195563
   41  C  3 YY   -0.044371   0.051921   0.081498  -0.062510   0.018970
   42  C  3 ZZ   -0.023636   0.046072   0.016730   0.072068   0.093663
   43  C  3 XY   -0.056459   0.079457  -0.116660   0.056356   0.041309
   44  C  3 XZ   -0.011798   0.020202  -0.005116   0.023845   0.042044
   45  C  3 YZ    0.006943  -0.008642   0.015738  -0.008040  -0.006054
   46  O  4  S   -0.016406   0.041045   0.013178  -0.008674  -0.004121
   47  O  4  S    0.016469  -0.124677  -0.146521   0.168633   0.392042
   48  O  4  X   -0.280083   0.267492  -0.248093   0.234660   0.482366
   49  O  4  Y   -0.081997  -0.196561   0.113833  -0.129063  -0.205076
   50  O  4  Z    0.031162  -0.034325   0.035685  -0.037445  -0.064650
   51  O  4  S   -0.027638   0.083871  -0.545601   0.153857  -0.354409
   52  O  4  X   -0.086517   0.206988   0.367866  -0.508171  -0.814941
   53  O  4  Y   -0.031779  -0.229473  -0.559103   0.339466   0.428445
   54  O  4  Z    0.005382  -0.022459  -0.047643   0.069167   0.105733
   55  O  4 XX   -0.069331   0.110982  -0.045703   0.094343   0.228431
   56  O  4 YY   -0.010121  -0.019197  -0.144829   0.077674   0.114379
   57  O  4 ZZ    0.016026  -0.041965  -0.013856   0.046050   0.131810
   58  O  4 XY    0.059964  -0.090364   0.065385  -0.030431  -0.007766
   59  O  4 XZ    0.013332  -0.022052   0.004879  -0.007405  -0.014112
   60  O  4 YZ   -0.009558   0.011875  -0.007583   0.004170   0.000746
   61  H  5  S    0.432229   0.188426  -0.194968  -0.354420   0.206151
   62  H  5  S   -0.049048  -0.024082   0.218502   1.805873  -0.723531
   63  H  6  S    0.209920   0.342206  -0.021472   0.346614  -0.292998
   64  H  6  S    0.230892  -0.057541   0.076624  -1.631875   0.857105
   65  H  7  S   -0.338914   0.013733   0.175801  -0.001186  -0.117768
   66  H  7  S   -0.016858   0.017191   0.604804   0.451695   0.007812
   67  H  8  S    0.142302   0.051973  -0.337614  -0.185834  -0.588185
   68  H  8  S    0.438024   0.219971   2.191223   0.213107   1.004400

                     36         37         38         39         40
                    0.8699     0.9058     0.9488     0.9873     1.0587
                     A          A          A          A          A   
    1  C  1  S    0.005224   0.029294   0.001130  -0.000426   0.015165
    2  C  1  S   -0.016214  -0.178763  -1.284097   0.068029   0.599467
    3  C  1  X    0.003561   0.573627   0.192758  -0.016608   0.101107
    4  C  1  Y    0.054549  -0.425963  -0.065620   0.001734   0.037585
    5  C  1  Z   -0.001060  -0.105304  -0.041147  -0.062767  -0.016561
    6  C  1  S   -0.622985  -0.891456   3.409103  -0.119200  -2.307478
    7  C  1  X    0.112883  -1.781387   0.189533   0.079541  -0.812048
    8  C  1  Y    0.588439   0.926257   0.016012   0.058467   0.019508
    9  C  1  Z   -0.016338   0.326683  -0.021981   0.076764   0.140476
   10  C  1 XX    0.027409  -0.063945  -0.041568   0.009290   0.004128
   11  C  1 YY   -0.053369   0.123213  -0.073545  -0.004303   0.052613
   12  C  1 ZZ    0.008138  -0.095783  -0.062371   0.004996   0.027306
   13  C  1 XY    0.062137   0.122047   0.050441   0.007916   0.020911
   14  C  1 XZ   -0.004239  -0.007373  -0.004607   0.004194   0.005825
   15  C  1 YZ   -0.011256  -0.021663  -0.007161   0.029449  -0.005255
   16  C  2  S   -0.036181   0.013055  -0.014113  -0.001460  -0.029547
   17  C  2  S    0.521569  -0.072058  -0.399512  -0.045160  -0.837420
   18  C  2  X    0.788124   0.379775  -0.187283   0.010299  -0.001460
   19  C  2  Y    0.551930  -0.304436   0.154748   0.013677  -0.000487
   20  C  2  Z   -0.135812  -0.068169   0.038006   0.043306  -0.007660
   21  C  2  S   -0.263406   0.124121   1.016488   0.168121   2.453263
   22  C  2  X   -2.140452  -1.710124   0.985493   0.029764  -0.599754
   23  C  2  Y   -1.968707   1.986799  -1.470038  -0.154024   0.387328
   24  C  2  Z    0.371973   0.301356  -0.183512   0.060841   0.111244
   25  C  2 XX   -0.051809   0.077434  -0.084823   0.007851  -0.049898
   26  C  2 YY    0.077426  -0.067409   0.048074  -0.003166  -0.103541
   27  C  2 ZZ    0.073602  -0.003625  -0.003658  -0.012049   0.034319
   28  C  2 XY   -0.114493  -0.049623   0.045381   0.000881  -0.055365
   29  C  2 XZ    0.026878  -0.017910   0.020312   0.040002   0.014199
   30  C  2 YZ    0.019687   0.008395  -0.006030   0.024688   0.009994
   31  C  3  S    0.016522  -0.017961   0.016743   0.001683   0.011961
   32  C  3  S    0.310247  -0.822774   1.172713   0.029196   0.397303
   33  C  3  X    0.126852  -0.065859  -0.143290   0.029057  -0.163048
   34  C  3  Y    0.087449  -0.166373   0.010723  -0.002305  -0.135314
   35  C  3  Z   -0.021435   0.005557   0.016607   0.101464   0.016084
   36  C  3  S   -1.584125   2.663545  -3.399518  -0.168426  -1.173533
   37  C  3  X    0.150086   0.689600  -0.046717  -0.167605   0.868466
   38  C  3  Y   -0.957574   1.405295  -0.854260  -0.089212   0.707268
   39  C  3  Z   -0.027388  -0.100376   0.014798  -0.550378  -0.095365
   40  C  3 XX    0.034947  -0.064011   0.050186   0.003883   0.136601
   41  C  3 YY   -0.003186  -0.050892   0.072886  -0.004207  -0.098283
   42  C  3 ZZ   -0.005842   0.003017   0.024983   0.002053   0.011008
   43  C  3 XY    0.068323   0.003373  -0.061766  -0.000579   0.072725
   44  C  3 XZ   -0.004776   0.012302  -0.004225  -0.005827  -0.015271
   45  C  3 YZ   -0.010561   0.000254   0.008029   0.031717  -0.011542
   46  O  4  S   -0.000257   0.001938  -0.002014  -0.000972  -0.000027
   47  O  4  S    0.040851   0.203221  -0.169425  -0.012083   0.021999
   48  O  4  X    0.017624  -0.001265  -0.053333  -0.128092   0.293121
   49  O  4  Y    0.027667   0.011755   0.021769   0.022139   0.656131
   50  O  4  Z    0.003635  -0.026844   0.002710  -0.933648  -0.012135
   51  O  4  S   -0.054313  -0.752258   0.696041   0.073597  -0.006113
   52  O  4  X    0.033921  -0.055891   0.103157   0.175377  -0.515970
   53  O  4  Y    0.092882  -0.186294   0.085129  -0.009470  -1.081166
   54  O  4  Z   -0.009345   0.038907  -0.009467   1.246247   0.028584
   55  O  4 XX    0.034540   0.045198  -0.009163   0.003664  -0.055500
   56  O  4 YY    0.016437   0.015615  -0.035009  -0.002979   0.080981
   57  O  4 ZZ   -0.021234   0.125021  -0.129479  -0.017293  -0.023409
   58  O  4 XY   -0.018687   0.011915  -0.002094  -0.002993  -0.058503
   59  O  4 XZ   -0.008081   0.012289  -0.017639   0.029110   0.003055
   60  O  4 YZ    0.002293  -0.000020  -0.000855  -0.009225   0.009535
   61  H  5  S    0.101844   0.505396   0.391136   0.008325   0.026348
   62  H  5  S    0.082956  -1.072413  -1.021199   0.074600  -0.001398
   63  H  6  S    0.011158   0.601412   0.238593  -0.036990   0.116376
   64  H  6  S   -0.095904  -1.184172  -0.808192   0.039587   0.340289
   65  H  7  S   -0.659226  -0.025029   0.006331  -0.005893  -0.157457
   66  H  7  S    2.554656   0.342196  -0.298128   0.013293  -0.152053
   67  H  8  S    0.131440  -0.006065  -0.312388  -0.020778   0.128315
   68  H  8  S   -0.203157   0.367860   0.836445  -0.034260   0.778591

                     41         42         43         44         45
                    1.0903     1.1508     1.2626     1.3345     1.4379
                     A          A          A          A          A   
    1  C  1  S    0.003914   0.025128  -0.014417  -0.003623   0.001524
    2  C  1  S   -0.369500   1.035700  -0.199396  -0.023633   0.018447
    3  C  1  X   -0.029103   0.139887   0.102248   0.043346   0.013272
    4  C  1  Y    0.369358   0.043593  -0.153290  -0.044998  -0.005323
    5  C  1  Z    0.006858  -0.025435  -0.037468   0.108815   0.097357
    6  C  1  S   -0.938902  -4.193632   3.213221   0.685480  -0.086875
    7  C  1  X   -1.328119  -1.570934  -0.230899   0.043999  -0.007835
    8  C  1  Y   -1.794071  -0.134536  -2.033762  -0.297124   0.097366
    9  C  1  Z    0.254139   0.284108   0.023750  -0.007777   0.005630
   10  C  1 XX   -0.153787  -0.046964   0.021402  -0.098249  -0.066838
   11  C  1 YY    0.089415   0.124523   0.064867   0.005578   0.000105
   12  C  1 ZZ    0.011486   0.035333  -0.111598   0.088675   0.067778
   13  C  1 XY   -0.051599   0.053536  -0.107878  -0.009678   0.076195
   14  C  1 XZ    0.024607   0.017311   0.032725  -0.343234  -0.226139
   15  C  1 YZ    0.013353  -0.007874   0.020085   0.037698   0.398484
   16  C  2  S   -0.001389  -0.044964   0.031964   0.006214  -0.001481
   17  C  2  S    0.123414  -1.294058   0.765909   0.131158  -0.028186
   18  C  2  X    0.045954   0.173139  -0.307331  -0.055098   0.034600
   19  C  2  Y   -0.137222  -0.120456  -0.208125  -0.028306  -0.000961
   20  C  2  Z   -0.003272  -0.025428   0.047215   0.027070   0.157544
   21  C  2  S   -0.119345   5.839353  -3.239066  -0.606727   0.136760
   22  C  2  X   -1.253339  -0.890875   3.960053   0.817599  -0.061024
   23  C  2  Y    2.128420   0.507427   2.220220   0.282566  -0.051699
   24  C  2  Z    0.192761   0.156488  -0.652982  -0.179091  -0.081815
   25  C  2 XX   -0.009885  -0.081850  -0.032107   0.048449   0.167723
   26  C  2 YY    0.046571  -0.034672   0.090540   0.016088   0.003000
   27  C  2 ZZ    0.000369  -0.000174  -0.044352  -0.067158  -0.171181
   28  C  2 XY    0.015805  -0.069603  -0.079962  -0.104514   0.022424
   29  C  2 XZ    0.006894   0.020020  -0.026337   0.157573   0.523683
   30  C  2 YZ   -0.025480   0.012075   0.103760  -0.498771   0.179523
   31  C  3  S   -0.002264   0.024876  -0.027577  -0.004933  -0.002436
   32  C  3  S    0.253062   0.538523  -0.303196  -0.072073  -0.016665
   33  C  3  X   -0.317794   0.035300  -0.009807   0.002785  -0.012918
   34  C  3  Y    0.130801   0.227262   0.164847   0.024879  -0.002173
   35  C  3  Z    0.054103  -0.008641   0.017989  -0.030580  -0.109690
   36  C  3  S    0.435563  -1.429255   2.179981   0.378307  -0.251592
   37  C  3  X    2.102183  -0.304501  -2.332580  -0.554416  -0.153995
   38  C  3  Y    0.733615  -1.767970   1.043495   0.148266   0.040975
   39  C  3  Z   -0.335524   0.046799   0.322948   0.017246   0.201268
   40  C  3 XX    0.029540  -0.003526  -0.069373   0.004966   0.069505
   41  C  3 YY    0.088415   0.046191   0.101184   0.015708   0.007056
   42  C  3 ZZ   -0.046915  -0.008552  -0.051197  -0.027393  -0.080010
   43  C  3 XY    0.146991  -0.040852  -0.016748   0.065728  -0.008446
   44  C  3 XZ   -0.013520   0.006829  -0.025108   0.060596   0.322108
   45  C  3 YZ    0.004889   0.004646  -0.092588   0.512200  -0.193685
   46  O  4  S    0.007592   0.002422  -0.039452  -0.007914  -0.008489
   47  O  4  S   -0.127820   0.149664  -0.365340  -0.048584  -0.143076
   48  O  4  X    0.226476  -0.322544  -0.019249  -0.010879   0.021190
   49  O  4  Y   -0.209246  -0.312321   0.200420   0.047325  -0.012210
   50  O  4  Z   -0.071703   0.057381  -0.008436   0.041000  -0.021046
   51  O  4  S   -0.539525  -0.246981   1.819470   0.350453   0.448142
   52  O  4  X   -0.435073   0.644573  -0.291672  -0.028218  -0.148688
   53  O  4  Y    0.049493   0.745582  -0.020059  -0.007204   0.079556
   54  O  4  Z    0.133730  -0.108736   0.030658   0.066277  -0.159239
   55  O  4 XX   -0.076167   0.117880  -0.122624   0.027076  -0.089886
   56  O  4 YY   -0.009930  -0.001495  -0.095938  -0.007379  -0.029689
   57  O  4 ZZ    0.048388  -0.023486  -0.161533  -0.079395   0.008716
   58  O  4 XY    0.016721   0.024321   0.052045   0.019822   0.027139
   59  O  4 XZ    0.027836  -0.022490  -0.034986   0.176470  -0.218947
   60  O  4 YZ   -0.001983   0.001982  -0.026885   0.071830   0.119941
   61  H  5  S   -0.397351  -0.133806  -0.554382  -0.085091   0.016272
   62  H  5  S   -0.730165   0.103809  -0.771409  -0.103815   0.014143
   63  H  6  S    0.519942   0.308402   0.348393   0.036728  -0.014603
   64  H  6  S    0.612668   0.617470   0.220243   0.011219  -0.030436
   65  H  7  S    0.040592  -0.319439  -0.810659  -0.149911   0.012374
   66  H  7  S    0.023848  -0.469965  -1.403944  -0.273635   0.010965
   67  H  8  S    0.569850  -0.112991  -0.544238  -0.130815  -0.006017
   68  H  8  S    0.739260  -0.332138  -0.784104  -0.196307  -0.028039

                     46         47         48         49         50
                    1.5450     1.5450     1.6570     1.7672     1.7939
                     A          A          A          A          A   
    1  C  1  S    0.013806   0.006616  -0.000683   0.007537  -0.002278
    2  C  1  S    0.306108   0.148304  -0.006300   0.067154   0.024189
    3  C  1  X   -0.026828  -0.000077  -0.002725   0.080421   0.003939
    4  C  1  Y   -0.126328  -0.050979  -0.004147  -0.035095  -0.138956
    5  C  1  Z   -0.035875   0.061283  -0.035783  -0.016382   0.001988
    6  C  1  S   -1.054581  -0.608519   0.083836   0.839248   0.319966
    7  C  1  X   -0.071671  -0.070480   0.038326   0.479154   0.034694
    8  C  1  Y    1.376816   0.655066  -0.029352  -0.029427  -0.209689
    9  C  1  Z    0.058299  -0.059262   0.083668  -0.087986  -0.013369
   10  C  1 XX    0.108338   0.016780   0.176373  -0.078100   0.132565
   11  C  1 YY    0.046139   0.018607  -0.006301  -0.110878  -0.152970
   12  C  1 ZZ   -0.152660  -0.035709  -0.169262   0.204120   0.064955
   13  C  1 XY    0.049683   0.094100   0.114570  -0.135469   0.205516
   14  C  1 XZ    0.005964  -0.081378   0.537426   0.052436  -0.026566
   15  C  1 YZ   -0.178155   0.317157   0.629495   0.011378  -0.029123
   16  C  2  S   -0.021854  -0.011283   0.000951  -0.000061   0.019543
   17  C  2  S   -0.530436  -0.260275   0.019782   0.143159  -0.222290
   18  C  2  X    0.106571   0.066100  -0.010853  -0.059238  -0.125725
   19  C  2  Y    0.063971   0.028520  -0.001978  -0.158562   0.235530
   20  C  2  Z   -0.042059   0.020750  -0.030404   0.010270   0.022924
   21  C  2  S    2.168812   1.084401  -0.088100   0.145057  -0.465488
   22  C  2  X   -0.423102  -0.309847   0.034639   1.338423   0.253392
   23  C  2  Y   -0.920018  -0.424514   0.004670  -0.592818  -0.232055
   24  C  2  Z    0.053781   0.144313  -0.211703  -0.220661  -0.042611
   25  C  2 XX   -0.020138   0.082257  -0.037818   0.019133  -0.299903
   26  C  2 YY    0.075851   0.024643   0.001080  -0.302330   0.340310
   27  C  2 ZZ   -0.069511  -0.110420   0.036111   0.352313  -0.032736
   28  C  2 XY   -0.038879   0.008025   0.013957  -0.073495  -0.020687
   29  C  2 XZ   -0.150961   0.189732  -0.109614   0.071793   0.058518
   30  C  2 YZ   -0.043342   0.090701   0.056669   0.010294   0.003575
   31  C  3  S   -0.016262  -0.006041   0.000261   0.014284   0.017088
   32  C  3  S   -0.097099  -0.031076  -0.004227   0.389601  -0.168055
   33  C  3  X    0.044651   0.041714  -0.004688   0.035611   0.103778
   34  C  3  Y   -0.017345  -0.011901  -0.000282   0.295729  -0.038676
   35  C  3  Z   -0.062930   0.141753  -0.033899  -0.002862  -0.012679
   36  C  3  S   -3.295425  -1.411898   0.055789  -2.389851   0.160981
   37  C  3  X   -2.200532  -0.843839   0.031317  -1.921750   0.540284
   38  C  3  Y    0.287341   0.071050   0.001848  -0.386655   0.620256
   39  C  3  Z    0.318220   0.014362   0.188513   0.258073  -0.068033
   40  C  3 XX   -0.049205  -0.153160   0.020276  -0.116112  -0.384772
   41  C  3 YY    0.142829   0.050279  -0.002417  -0.278614   0.307265
   42  C  3 ZZ   -0.133553   0.087144  -0.016924   0.457482   0.046279
   43  C  3 XY    0.146541   0.041452   0.038378  -0.068074  -0.252711
   44  C  3 XZ    0.199456  -0.555700   0.096064   0.081895   0.064337
   45  C  3 YZ    0.043238  -0.096218   0.324341   0.021606   0.031456
   46  O  4  S   -0.088355  -0.035016   0.000923  -0.045262   0.006602
   47  O  4  S   -1.529851  -0.613803   0.018999  -0.788542   0.151592
   48  O  4  X    0.206959   0.100502   0.001779   0.015919   0.085214
   49  O  4  Y   -0.103304  -0.048200   0.002953  -0.046688   0.239371
   50  O  4  Z   -0.054889   0.089373   0.041854   0.002294  -0.011011
   51  O  4  S    4.990023   1.980045  -0.053781   2.954371  -0.438159
   52  O  4  X   -1.352889  -0.531427   0.005902  -0.660605  -0.081607
   53  O  4  Y    0.912676   0.374265  -0.013423   0.627859  -0.453438
   54  O  4  Z    0.138921   0.122881  -0.078759   0.074440   0.010812
   55  O  4 XX   -0.366602  -0.091166   0.043990  -0.298602   0.334202
   56  O  4 YY   -0.280018  -0.114381   0.004141  -0.564319  -0.508163
   57  O  4 ZZ   -0.447286  -0.233081  -0.035656   0.389651   0.269673
   58  O  4 XY    0.254717   0.045193   0.028454  -0.154759   0.130109
   59  O  4 XZ   -0.084464   0.227226   0.189562   0.118832  -0.009803
   60  O  4 YZ    0.117014  -0.382367   0.266562   0.031818  -0.018045
   61  H  5  S    0.174180   0.089792  -0.005776   0.204104  -0.268922
   62  H  5  S    0.257425   0.134175  -0.003500   0.049701   0.055406
   63  H  6  S   -0.194267  -0.088234   0.002331   0.009054   0.195680
   64  H  6  S   -0.466780  -0.207904   0.002274  -0.024145   0.028982
   65  H  7  S    0.032178   0.022120  -0.008032  -0.128992   0.149774
   66  H  7  S    0.098417   0.083876  -0.016176  -0.308519  -0.090700
   67  H  8  S   -0.066268  -0.015275   0.000654   0.017428   0.553610
   68  H  8  S   -0.329614  -0.113912  -0.006402  -0.471823   0.131839

                     51         52         53         54         55
                    1.8441     1.9055     1.9870     2.0504     2.1398
                     A          A          A          A          A   
    1  C  1  S   -0.000798   0.023479  -0.017527  -0.015608   0.006664
    2  C  1  S   -0.008162   0.064602  -0.203583  -0.316491   0.060076
    3  C  1  X   -0.004218  -0.069161  -0.264393  -0.160119   0.021508
    4  C  1  Y    0.004648  -0.099290   0.015742   0.202504  -0.013704
    5  C  1  Z   -0.009038   0.011797   0.047394   0.028957   0.018740
    6  C  1  S   -0.003614  -0.742742  -0.149863  -0.140750  -0.282808
    7  C  1  X   -0.008097  -0.139649   0.164406   0.245931   0.006860
    8  C  1  Y   -0.014192  -0.196007   0.355814  -0.079595  -0.029708
    9  C  1  Z    0.044814   0.024255  -0.026019  -0.059567   0.202794
   10  C  1 XX   -0.052185   0.134324   0.376285  -0.033201   0.094183
   11  C  1 YY    0.011422  -0.535038  -0.110055   0.022020  -0.154649
   12  C  1 ZZ    0.039285   0.413372  -0.392173  -0.151264   0.048121
   13  C  1 XY   -0.044773  -0.058313   0.110479  -0.618682  -0.209248
   14  C  1 XZ   -0.163051   0.055680  -0.153922  -0.047212   0.333824
   15  C  1 YZ   -0.272877   0.005930  -0.023281   0.146569  -0.346366
   16  C  2  S   -0.000799   0.024438  -0.034918  -0.004565  -0.000563
   17  C  2  S   -0.003014   0.181923  -0.452198  -0.340598  -0.071729
   18  C  2  X    0.013020  -0.082081   0.037208   0.223875   0.032121
   19  C  2  Y    0.003870  -0.106438  -0.072441   0.115237   0.010140
   20  C  2  Z    0.058443   0.015413  -0.009760  -0.035838  -0.083438
   21  C  2  S    0.003620  -0.785451   1.655474  -0.283617   0.016946
   22  C  2  X   -0.051448  -0.603722  -0.603710  -0.770749  -0.152490
   23  C  2  Y    0.018262   0.594212  -0.975997   0.501952   0.212508
   24  C  2  Z   -0.136242   0.108055   0.111248   0.161630  -0.358627
   25  C  2 XX    0.062175  -0.333975  -0.022643   0.411793   0.188704
   26  C  2 YY    0.011122  -0.083097   0.206982  -0.349987  -0.002868
   27  C  2 ZZ   -0.075848   0.401269  -0.251071  -0.207336  -0.208581
   28  C  2 XY    0.082738  -0.467312  -0.403118  -0.295804   0.086597
[...]

          ATOMIC WEIGHTS (AMU)

    1     C                12.00000
    2     C                12.00000
    3     C                12.00000
    4     O                15.99491
    5     H                 1.00782
    6     H                 1.00782
    7     H                 1.00782
    8     H                 1.00782

 MODES    1 TO    6 ARE TAKEN AS ROTATIONS AND TRANSLATIONS.

 ANALYZING SYMMETRY OF NORMAL MODES...

     FREQUENCIES IN CM**-1, IR INTENSITIES IN DEBYE**2/AMU-ANGSTROM**2,
     REDUCED MASSES IN AMU.

                            1           2           3           4           5
       FREQUENCY:        20.91        4.92        0.09        0.05        0.03  
        SYMMETRY:         A           A           A           A           A   
    REDUCED MASS:      1.61589     4.69829     6.96401     6.96010     7.01704
    IR INTENSITY:      0.02567     0.08301     0.00001     0.00001     0.00001

  1   C            X -0.00623003 -0.12898791  0.07139818 -0.01307901  0.11152956
                   Y  0.00028800 -0.10768792  0.11417343  0.01171256 -0.07055125
                   Z -0.03694606  0.01397535 -0.00297855  0.13369138  0.01741703
  2   C            X  0.02481605 -0.07030188  0.07099222 -0.01330745  0.11202243
                   Y  0.00145651 -0.00028582  0.11343591  0.01154389 -0.06965521
                   Z  0.13394505  0.01107899 -0.00291493  0.13293798  0.01741085
  3   C            X -0.01638584  0.06263195  0.07012481 -0.01369641  0.11321750
                   Y  0.00133089  0.00603967  0.11339944  0.01153264 -0.06959675
                   Z -0.11430918 -0.00960246 -0.00244872  0.13193309  0.01769402
  4   O            X  0.00062855  0.12071860  0.06973101 -0.01390398  0.11371252
                   Y -0.00265605  0.10061635  0.11273911  0.01135956 -0.06878987
                   Z  0.02602564 -0.01327891 -0.00243274  0.13120133  0.01770194
  5   H            X -0.06294315 -0.08006711  0.07108467 -0.01317883  0.11198905
                   Y  0.00088059 -0.19362344  0.11477175  0.01185082 -0.07126334
                   Z -0.36591497  0.00121979 -0.00269185  0.13358756  0.01763312
  6   H            X  0.02256403 -0.22704312  0.07201669 -0.01278712  0.11065422
                   Y -0.00156880 -0.11431223  0.11422343  0.01171489 -0.07060132
                   Z  0.14115258  0.02898642 -0.00331402  0.13442763  0.01720930
  7   H            X  0.08042800 -0.11725127  0.07128314 -0.01321122  0.11156776
                   Y  0.00137853  0.08649137  0.11281778  0.01139820 -0.06891529
                   Z  0.46193431  0.02361903 -0.00320006  0.13301850  0.01719796
  8   H            X -0.06559080  0.10802530  0.06985022 -0.01378903  0.11364742
                   Y  0.00482310 -0.08438050  0.11399889  0.01169391 -0.07036230
                   Z -0.44988782 -0.02212984 -0.00209852  0.13187846  0.01790685

 TRANS. SAYVETZ    X  0.01071402 -0.02782245  3.95198245 -0.75676798  6.31141833
                   Y -0.00002187  0.07792286  6.35473580  0.64618705 -3.90126854
                   Z -0.00582499  0.00497101 -0.15041067  7.41838509  0.98389835
               TOTAL  0.01219513  0.08289012  7.48488181  7.48483085  7.48478146

   ROT. SAYVETZ    X  4.17241504  2.78101525 -0.04128111  0.11892608 -0.00816574
                   Y -4.48385582 -0.45238741 -0.00751961  0.08603487 -0.01896465
                   Z -0.92483021 20.48606546 -0.13771559 -0.05425646  0.17772974
               TOTAL  6.19429747 20.67891627  0.14396618  0.15649018  0.17892512

                            6           7           8           9          10
       FREQUENCY:         6.91      174.67      319.89      571.37      610.29  
        SYMMETRY:         A           A           A           A           A   
    REDUCED MASS:      5.78555     3.45481     2.69268     4.66184     1.19749
    IR INTENSITY:      0.09324     0.09357     0.22102     0.13695     0.17409

  1   C            X -0.02474679  0.01872454  0.02164556  0.08414108 -0.00829144
                   Y  0.00432058 -0.00283109  0.10712299 -0.09711016  0.01175393
                   Z -0.17520781  0.10267201 -0.00310942 -0.01308161  0.01556538
  2   C            X -0.00598951 -0.02023156 -0.09157558  0.06836447 -0.02704189
                   Y -0.00058372  0.00044453 -0.10437005 -0.06534732  0.00866201
                   Z -0.05465517 -0.12580536  0.01644193 -0.02224305 -0.10818600
  3   C            X  0.00644673 -0.01984263 -0.03928167 -0.11058548  0.01784228
                   Y -0.00075994  0.00006337 -0.09933350  0.00896326 -0.00117396
                   Z  0.05241820 -0.13017173  0.00327317  0.02160027  0.02474988
  4   O            X  0.02094930  0.01611076  0.07118467 -0.04319863  0.00625843
                   Y -0.00264909  0.00235661  0.07135733  0.14790303 -0.01838795
                   Z  0.16557024  0.11989391 -0.01043883  0.00546337 -0.00138355
  5   H            X -0.03074759  0.03569107 -0.10802072  0.12939571 -0.09836635
                   Y  0.00784857 -0.00502973  0.33238225 -0.19285822  0.02780919
                   Z -0.19798222  0.19411412  0.01628951 -0.08498515 -0.45379475
  6   H            X -0.03496244  0.03923268  0.27865222 -0.00227685  0.10374992
                   Y  0.00532726 -0.00410741  0.12575149 -0.10738696  0.00763975
                   Z -0.25496488  0.22785616 -0.04402291  0.07315366  0.57980480
  7   H            X  0.00014001 -0.02990538 -0.03428610  0.14641205  0.03578268
                   Y -0.00389810  0.00185492 -0.20313683 -0.19813164  0.02471762
                   Z -0.02950257 -0.17816756  0.01202599  0.02062749  0.31294502
  8   H            X  0.00110631 -0.04593659  0.03423530 -0.08720084  0.06765370
                   Y  0.00127912 -0.00153374 -0.23738322 -0.02136769  0.00236691
                   Z  0.02219561 -0.32113652 -0.01635208  0.06791812  0.39118374

 TRANS. SAYVETZ    X -0.02136094  0.00056906 -0.00003246 -0.00012914 -0.00011797
                   Y  0.00399061  0.00093049  0.00013884 -0.00004634 -0.00018710
                   Z  0.05508815  0.00009243 -0.00001023  0.00000780  0.00005597
               TOTAL  0.05921924  0.00109461  0.00014295  0.00013742  0.00022816

   ROT. SAYVETZ    X-15.79174555  0.03681294 -0.04170502 -0.00672247 -0.00687089
                   Y-11.70099020  0.05278498  0.01846994 -0.00165996  0.00241688
                   Z  1.80963966  0.00195813  0.01115341 -0.00161634  0.00429565
               TOTAL 19.73745665  0.06438386  0.04695579  0.00711053  0.00845595

                           11          12          13          14          15
       FREQUENCY:       928.24      991.34     1022.21     1042.85     1180.02  
        SYMMETRY:         A           A           A           A           A   
    REDUCED MASS:      1.57999     1.33842     1.63365     1.17488     2.01366
    IR INTENSITY:      0.51309     0.85332     0.19337     0.18809     0.86605

  1   C            X -0.00378114 -0.02459626 -0.00552190 -0.00160986  0.00491573
                   Y -0.10688500  0.00156023  0.00060762  0.00166807 -0.04890705
                   Z -0.00057018 -0.14095697 -0.02789739 -0.00639558 -0.00141429
  2   C            X -0.01264912  0.00555813  0.02008262 -0.00299324  0.06871510
                   Y -0.07320383 -0.00029872  0.00011083  0.00129522  0.11370477
                   Z  0.00236392  0.03184097  0.11509814 -0.01957738 -0.01098447
  3   C            X  0.04403215  0.00402347 -0.02008805 -0.01624768 -0.07335859
                   Y  0.11234327  0.00006463 -0.00180456 -0.00253714 -0.13723207
                   Z -0.00775256  0.02901264 -0.13564827 -0.10692921  0.01310762
  4   O            X -0.02977315 -0.00100054  0.00490535  0.00378608  0.00794031
                   Y  0.00951023 -0.00009901  0.00052737  0.00004430  0.02386556
                   Z  0.00464024 -0.00814753  0.03372043  0.02379030 -0.00174484
  5   H            X -0.25019347  0.10175542 -0.02455782  0.07640710 -0.10062443
                   Y  0.33932883 -0.00679360  0.00248509 -0.00541817  0.14266897
                   Z  0.05414869  0.56833436 -0.13205479  0.42493686  0.01937821
  6   H            X  0.55295792  0.10468631  0.02743947 -0.05443252  0.19860816
                   Y -0.06974802 -0.00567905 -0.00106172  0.00384421 -0.03288708
                   Z -0.09867640  0.60747339  0.15642590 -0.27105034 -0.03470792
  7   H            X -0.14908313  0.00304859 -0.08728987  0.10179747 -0.17202606
                   Y  0.16825772 -0.00191225  0.00493920 -0.00067596  0.55794672
                   Z  0.03300855  0.01175278 -0.50192075  0.59146306  0.03224400
  8   H            X -0.00992990 -0.01481899  0.07236712  0.06440006 -0.05515838
                   Y  0.21792856  0.00017713 -0.00180213 -0.00355678 -0.18391943
                   Z  0.00882504 -0.10446283  0.51924584  0.45955105  0.00235233

 TRANS. SAYVETZ    X -0.00011986  0.00001519 -0.00000269 -0.00000686  0.00005978
                   Y  0.00006715  0.00001099 -0.00000194 -0.00002980  0.00011033
                   Z -0.00000072  0.00001363  0.00000734  0.00002657  0.00001502
               TOTAL  0.00013739  0.00002318  0.00000806  0.00004051  0.00012638

   ROT. SAYVETZ    X  0.00250576  0.00228243  0.00119252  0.00020348  0.00151510
                   Y  0.00336340 -0.00313231 -0.00398419 -0.00065852  0.00126488
                   Z  0.00399068 -0.00036045  0.00032621 -0.00057514 -0.00057192
               TOTAL  0.00578937  0.00389240  0.00417160  0.00089768  0.00205488

                           16          17          18          19          20
       FREQUENCY:      1307.93     1409.17     1474.01     1699.17     1803.56  
        SYMMETRY:         A           A           A           A           A   
    REDUCED MASS:      1.47803     1.19666     1.22588     4.01497     9.44538
    IR INTENSITY:      0.05397     0.13779     0.23351     0.05648     4.98544

  1   C            X  0.10150293 -0.01704969 -0.02544473  0.15215713  0.01053554
                   Y  0.04424385  0.01930726 -0.00040037 -0.09155481 -0.00338687
                   Z -0.01726132  0.00310501  0.00456055 -0.02731126 -0.00196440
  2   C            X -0.08252855  0.05166936 -0.06305185 -0.14425030 -0.02778603
                   Y -0.09394496 -0.05812057  0.07358482  0.11108315  0.02225611
                   Z  0.01406653 -0.00955735  0.01091144  0.02539730  0.00455645
  3   C            X  0.01357060 -0.02596545 -0.02506973 -0.01835722  0.17981939
                   Y  0.01413574 -0.05397283 -0.04293804  0.00601609 -0.13143266
                   Z -0.00195811  0.00381812  0.00311879  0.00213694 -0.02520958
  4   O            X -0.00851562  0.05273615  0.04919586  0.02786445 -0.12348302
                   Y  0.00663656  0.00740155 -0.01081888 -0.02113662  0.07857771
                   Z  0.00122725 -0.00742606 -0.00681500 -0.00380409  0.01711040
  5   H            X  0.30110418 -0.16846991  0.23189385 -0.04516295 -0.00521576
                   Y -0.29841495  0.25477196 -0.42702415  0.28344431  0.01903684
                   Z -0.05618863  0.03153658 -0.04418212  0.01052629  0.00072225
  6   H            X -0.09692141 -0.34918357  0.54079946 -0.21087177 -0.00864329
                   Y  0.02104883  0.00824504  0.02365234 -0.13511523 -0.00533066
                   Z  0.01770611  0.06093075 -0.09512747  0.03693885  0.00260212
  7   H            X -0.42768035 -0.01429999  0.07071751 -0.01432326  0.03465864
                   Y  0.50733782  0.07041096 -0.17242145 -0.17130488 -0.07756996
                   Z  0.07554601  0.00168227 -0.01246324  0.00232437 -0.00567515
  8   H            X -0.02890042 -0.40803266 -0.27186472 -0.04753171  0.00332719
                   Y  0.08823671  0.65396494  0.38737823  0.05407056  0.15727477
                   Z  0.00480874  0.05508286  0.03856781  0.00791424  0.00009623

 TRANS. SAYVETZ    X -0.00003985  0.00001915  0.00010617 -0.00009266  0.00004274
                   Y  0.00006522  0.00007264  0.00002041 -0.00020708  0.00022431
                   Z -0.00000524  0.00001033 -0.00000676 -0.00001497 -0.00000331
               TOTAL  0.00007661  0.00007583  0.00010832  0.00022736  0.00022837

   ROT. SAYVETZ    X  0.00107323  0.00205687  0.00065796  0.00038542  0.00009545
                   Y  0.00142144  0.00057681  0.00165928  0.00022617 -0.00033056
                   Z -0.00275421  0.00107266  0.00079990  0.00032084  0.00067078
               TOTAL  0.00327993  0.00239040  0.00195601  0.00055013  0.00075388

                           21          22          23          24
       FREQUENCY:      2901.03     3160.74     3197.10     3248.33  
        SYMMETRY:         A           A           A           A   
    REDUCED MASS:      1.08414     1.05968     1.09409     1.11518
    IR INTENSITY:      2.51985     0.14788     0.06464     0.19043

  1   C            X  0.00107189 -0.06306681  0.01730477 -0.03017808
                   Y -0.00048070  0.01661181  0.01084008 -0.08704017
                   Z -0.00019005  0.01128409 -0.00294312  0.00452304
  2   C            X -0.00125792 -0.00242474 -0.07208984 -0.01439183
                   Y  0.00246375 -0.00790501 -0.03729908 -0.00608669
                   Z  0.00021202  0.00036797  0.01226550  0.00246316
  3   C            X -0.06728444 -0.00029149 -0.00164361 -0.00031608
                   Y -0.04208859 -0.00149341  0.00225174  0.00031149
                   Z  0.00952349  0.00004334  0.00022084  0.00004146
  4   O            X -0.00118906 -0.00032072  0.00072045  0.00010163
                   Y  0.00149331  0.00042713 -0.00056913 -0.00004989
                   Z  0.00015950  0.00004573 -0.00009327 -0.00001279
  5   H            X -0.00581537  0.66363906 -0.14863254  0.44366756
                   Y -0.01055536  0.40279283 -0.08970201  0.25461333
                   Z  0.00088805 -0.11361930  0.02543193 -0.07608273
  6   H            X  0.00539543  0.02258113  0.00388802 -0.05138562
                   Y  0.00339084 -0.55762391 -0.07353131  0.76930873
                   Z -0.00094297 -0.00920628 -0.00133229  0.01637231
  7   H            X -0.00584803  0.09364595  0.80137151  0.13855180
                   Y -0.00325587  0.05442561  0.45820889  0.07734900
                   Z  0.00089747 -0.01592843 -0.13581253 -0.02351562
  8   H            X  0.82853570  0.00853415  0.00385260  0.00200319
                   Y  0.46431930  0.00778211  0.00233041  0.00467238
                   Z -0.11702674 -0.00123112 -0.00043929 -0.00024425

 TRANS. SAYVETZ    X  0.00003743  0.00004307  0.00002704  0.00000002
                   Y  0.00006959  0.00004445  0.00004211  0.00001502
                   Z  0.00000344 -0.00000431 -0.00000277  0.00000399
               TOTAL  0.00007909  0.00006204  0.00005012  0.00001554

   ROT. SAYVETZ    X  0.00033732  0.00018217  0.00025935 -0.00023631
                   Y -0.00054280 -0.00003827 -0.00042150 -0.00005564
                   Z  0.00012146 -0.00005424  0.00016111  0.00010643
               TOTAL  0.00065051  0.00019389  0.00052046  0.00026507

 REFERENCE ON SAYVETZ CONDITIONS - A. SAYVETZ, J.CHEM.PHYS., 7, 383-389(1939).

 NOTE - THE MODES J,K ARE ORTHONORMALIZED ACCORDING TO
 SUM ON I   M(I) * (X(I,J)*X(I,K) + Y(I,J)*Y(I,K) + Z(I,J)*Z(I,K)) = DELTA(J,K)

  MODE FREQ(CM**-1)  SYMMETRY  RED. MASS  IR INTENS.
     1      20.910    A        1.615887    0.025674
     2       4.920    A        4.698287    0.083006
     3       0.089    A        6.964012    0.000007
     4       0.049    A        6.960102    0.000005
     5       0.030    A        7.017036    0.000006
     6       6.906    A        5.785551    0.093240
     7     174.675    A        3.454812    0.093572
     8     319.895    A        2.692679    0.221022
     9     571.368    A        4.661842    0.136946
    10     610.291    A        1.197491    0.174088
    11     928.243    A        1.579993    0.513087
    12     991.335    A        1.338421    0.853317
    13    1022.212    A        1.633655    0.193368
    14    1042.853    A        1.174883    0.188091
    15    1180.021    A        2.013657    0.866053
    16    1307.933    A        1.478033    0.053967
    17    1409.174    A        1.196659    0.137793
    18    1474.011    A        1.225884    0.233508
    19    1699.166    A        4.014966    0.056479
    20    1803.561    A        9.445383    4.985441
    21    2901.029    A        1.084135    2.519846
    22    3160.737    A        1.059682    0.147885
    23    3197.101    A        1.094093    0.064641
    24    3248.334    A        1.115178    0.190433

     -------------------------------
     THERMOCHEMISTRY AT T=  298.15 K
     -------------------------------

 USING IDEAL GAS, RIGID ROTOR, HARMONIC NORMAL MODE APPROXIMATIONS.
 P=  1.01325E+05 PASCAL.
 ALL FREQUENCIES ARE SCALED BY   1.00000
 THE MOMENTS OF INERTIA ARE (IN AMU*BOHR**2)
             37.64960           390.19807           427.79022
 THE ROTATIONAL SYMMETRY NUMBER IS  1.0
 THE ROTATIONAL CONSTANTS ARE (IN GHZ)
     47.89130     4.62096     4.21489
      7 -     24 VIBRATIONAL MODES ARE USED IN THERMOCHEMISTRY.
 THE HARMONIC ZERO POINT ENERGY IS (SCALED BY   1.000)
        0.061606 HARTREE/MOLECULE    13520.968889 CM**-1/MOLECULE 
       38.658429 KCAL/MOL              161.746866 KJ/MOL

               Q               LN Q
 ELEC.     1.00000E+00       0.000000
 TRANS.    1.64832E+07      16.617850
 ROT.      2.83779E+04      10.253364
 VIB.      2.62193E+00       0.963911
 TOT.      1.22643E+12      27.835126

              E         H         G         CV        CP        S
           KJ/MOL    KJ/MOL    KJ/MOL   J/MOL-K   J/MOL-K   J/MOL-K
 ELEC.      0.000     0.000     0.000     0.000     0.000     0.000
 TRANS.     3.718     6.197   -41.195    12.472    20.786   158.954
 ROT.       3.718     3.718   -25.417    12.472    12.472    97.722
 VIB.     165.750   165.750   159.357    32.456    32.456    21.442
 TOTAL    173.187   175.666    92.745    57.399    65.713   278.118
 VIB. THERMAL CORRECTION E(T)-E(0) = H(T)-H(0) =      4003.584 J/MOL

              E         H         G         CV        CP        S
         KCAL/MOL  KCAL/MOL  KCAL/MOL CAL/MOL-K CAL/MOL-K CAL/MOL-K
 ELEC.      0.000     0.000     0.000     0.000     0.000     0.000
 TRANS.     0.889     1.481    -9.846     2.981     4.968    37.991
 ROT.       0.889     0.889    -6.075     2.981     2.981    23.356
 VIB.      39.615    39.615    38.087     7.757     7.757     5.125
 TOTAL     41.393    41.985    22.167    13.719    15.706    66.472
 VIB. THERMAL CORRECTION E(T)-E(0) = H(T)-H(0) =       956.880 CAL/MOL
 ......END OF NORMAL COORDINATE ANALYSIS......
 STEP CPU TIME =     0.00 TOTAL CPU TIME =        787.2 (     13.1 MIN)
 TOTAL WALL CLOCK TIME=        805.2 SECONDS, CPU UTILIZATION IS    97.77%
               1080583  WORDS OF DYNAMIC MEMORY USED
 EXECUTION OF GAMESS TERMINATED NORMALLY Mon Oct  3 21:16:18 2022
 DDI: 263640 bytes (0.3 MB / 0 MWords) used by master data server.

 ----------------------------------------
 CPU timing information for all processes
 ========================================
 0: 782.968 + 4.239 = 787.208
 ----------------------------------------
 ddikick.x: exited gracefully.
----- accounting info -----
Files used on the master node chemcompute-node-2.novalocal were:
-rw-r--r--. 1 chemcomp chemcomp      985 Oct  3 21:02 /scratch/120467/460031.F05
-rw-rw-r--. 1 chemcomp chemcomp 65536000 Oct  3 21:16 /scratch/120467/460031.F10
-rw-rw-r--. 1 chemcomp chemcomp  4143136 Oct  3 21:16 /scratch/120467/460031.F22
Mon Oct  3 21:16:21 UTC 2022
0.097u 0.033s 13:28.65 0.0%	0+0k 8+216io 0pf+0w
Finishing Up...
Looking for IR data...
Looking for Raman data...
vibramans not found
Looking for thermodynamics data...
Looking for UV-Vis data...
chemcompute.org
{'UTCtimestamp': '2022-10-03T21:16:23.193379', 'cluster': 'jetstream2', 'clusterJobNumber': '120467', 'status': 'COMPLETE', 'nodeList': 'chemcompute-node-2'}
120467
